VARIABLES="w (rad/s)"  
"abs(F   1   1)" "angle(F   1   1)"
"abs(F   1   2)" "angle(F   1   2)"
"abs(F   1   3)" "angle(F   1   3)"
"abs(F   1   4)" "angle(F   1   4)"
"abs(F   1   5)" "angle(F   1   5)"
"abs(F   1   6)" "angle(F   1   6)"
Zone t="Diffraction force - beta =   0.000 deg",I=    30,F=POINT
  0.1000000E-01  0.9769717E+02 -0.1570794E+01  0.4925763E-02  0.1506385E+01  0.3574562E+02 -0.3080832E+01  0.1817212E-01 -0.1636635E+01  0.4927230E+03 -0.1570788E+01  0.1641448E-02 -0.1569077E+01
  0.6993103E+00  0.1754021E+05 -0.1553347E+01  0.1240263E+01  0.1779357E+01  0.1309354E+06 -0.2792832E+01  0.5490746E+01 -0.1098638E+01  0.8167183E+05 -0.1552895E+01  0.1135898E+00  0.1408803E+01
  0.1388621E+01  0.1199521E+05 -0.1113082E+01  0.7347352E+01  0.2922061E+01  0.3078628E+06 -0.2496035E+01  0.3400977E+02 -0.8812696E-01  0.3792205E+05 -0.8811571E+00  0.1282095E+01  0.1617535E+01
  0.2077931E+01  0.1184143E+06  0.2366038E+01  0.2909501E+02 -0.2115523E+01  0.2529285E+06 -0.2485245E+01  0.1289488E+03  0.1157229E+01  0.5582138E+06  0.2276871E+01  0.3946453E+01  0.9086379E+00
  0.2767241E+01  0.1168856E+06  0.2494195E+01  0.2047692E+02 -0.2668889E+01  0.4571406E+05  0.2794075E+01  0.9166587E+02  0.8249255E+00  0.5237288E+06  0.2358080E+01  0.7566635E+01  0.1752385E+00
  0.3456552E+01  0.5376295E+05 -0.3403238E+00  0.7128112E+02 -0.1092660E+01  0.5132941E+05  0.8123661E+00  0.2791642E+03  0.2104751E+01  0.1987899E+06 -0.3206587E+00  0.4339136E+01 -0.1383850E+00
  0.4145863E+01  0.1327947E+05 -0.2996319E+01  0.4683107E+03 -0.6823598E+00  0.1923364E+05 -0.2437675E+01  0.1658102E+04  0.2571952E+01  0.5080447E+05 -0.2655832E+01  0.5916191E+01 -0.3130358E+01
  0.4835172E+01  0.8071880E+04  0.2891508E+00  0.1185273E+04  0.2591257E+01  0.9574477E+04 -0.1891019E+01  0.4105458E+04 -0.4057583E+00  0.3081070E+05  0.6303931E+00  0.4791255E+01 -0.1968559E+01
  0.5524483E+01  0.1423350E+05  0.3031232E+01  0.6713863E+02 -0.2167965E+01  0.8370960E+04 -0.2208939E+01  0.2110536E+03  0.1110770E+01  0.4430909E+05  0.3120976E+01  0.6378933E+01 -0.2647083E+01
  0.6213793E+01  0.1519026E+04 -0.2595035E+00  0.7837032E+02 -0.3887648E+00  0.3618250E+04 -0.1011352E+00  0.7413350E+03  0.2315098E+01  0.1891991E+05 -0.2778941E+01  0.3246234E+01  0.2126719E-01
  0.6903103E+01  0.2282551E+04  0.2025221E+01  0.2798633E+03  0.1741163E+01  0.4172313E+04  0.2062641E+01  0.1022814E+04 -0.1346969E+01  0.9313423E+04  0.1935445E+01  0.1225410E+02 -0.1511749E+01
  0.7592414E+01  0.9441403E+04  0.2885029E+01  0.5477950E+02  0.3087649E+01  0.1163723E+04  0.2361758E+01  0.1798793E+03  0.6617709E-01  0.2788383E+05  0.2850652E+01  0.5540961E+01  0.2777489E+01
  0.8281725E+01  0.6563084E+04  0.3044800E+01  0.2061692E+02 -0.2052354E+01  0.1045222E+04 -0.2727743E+01  0.6217020E+02  0.8681313E+00  0.1762514E+05  0.3057083E+01  0.5711967E+01 -0.1337148E+01
  0.8971035E+01  0.4238784E+04  0.3032304E+01  0.2927611E+02  0.2908041E+01  0.9025735E+03 -0.1964598E+01  0.8615611E+02 -0.1610777E+00  0.1089708E+05  0.3041839E+01  0.3649320E+01 -0.2666519E+01
  0.9660344E+01  0.4404387E+04 -0.3064008E+01  0.3669264E+02 -0.2547897E+01  0.4565681E+03 -0.2448510E+01  0.1128971E+03  0.7024571E+00  0.1128666E+05 -0.3023750E+01  0.5838371E+01 -0.1677657E+01
  0.1034966E+02  0.3319473E+04  0.2837925E+01  0.4467269E+02  0.4281242E+00  0.8817673E+02  0.1874777E+01  0.1562833E+03 -0.2691566E+01  0.9042864E+04  0.2802660E+01  0.1102799E+02  0.2918552E+01
  0.1103897E+02  0.2709395E+04  0.2979455E+01  0.2474084E+03 -0.2149946E+00  0.3735421E+04  0.1131399E+00  0.7529354E+03  0.2948193E+01  0.7832957E+04  0.2887965E+01  0.8620629E+02  0.5662043E+00
  0.1172828E+02  0.4899172E+04 -0.8816186E+00  0.3479864E+02  0.1119573E+01  0.1861922E+04 -0.2616057E+01  0.1089237E+03 -0.1680239E+01  0.1565545E+05 -0.8462995E+00  0.1734484E+02  0.8050186E+00
  0.1241759E+02  0.1159822E+04 -0.2102157E+01  0.8967867E+02  0.7119939E+00  0.6768199E+03  0.1429859E+01  0.3164998E+03 -0.2315860E+01  0.3296552E+04 -0.1760710E+01  0.2670043E+01 -0.1058295E+01
  0.1310690E+02  0.1466637E+04 -0.9008003E+00  0.8835471E+02  0.7709764E+00  0.2167900E+04  0.7783607E+00  0.2960253E+03 -0.2332394E+01  0.4672298E+04 -0.8617088E+00  0.1871332E+02  0.2775084E+01
  0.1379621E+02  0.1192160E+04 -0.1024967E+01  0.7810483E+02 -0.5496117E+00  0.1081654E+04 -0.2483936E+01  0.2546462E+03  0.2653631E+01  0.3985144E+04 -0.1045406E+01  0.5840637E+01  0.5894917E+00
  0.1448552E+02  0.1013268E+04  0.1553701E+01  0.1770921E+02 -0.1645863E+01  0.7936290E+03 -0.2101633E+01  0.5300306E+02  0.1653259E+01  0.2593386E+04  0.1641767E+01  0.8611710E+00  0.2012123E+01
  0.1517483E+02  0.1264902E+04  0.2168055E+01  0.1234360E+03 -0.8071759E+00  0.6270111E+03  0.9929281E+00  0.4403280E+03  0.2310732E+01  0.4689739E+04  0.2289721E+01  0.6300158E+01  0.4581646E+00
  0.1586414E+02  0.7106965E+03  0.8960208E+00  0.7052546E+02  0.1163300E+01  0.8107281E+03 -0.2043906E+01  0.1560699E+03 -0.2152420E+01  0.2108791E+04  0.8171561E+00  0.3052551E+02  0.9035205E+00
  0.1655345E+02  0.2116876E+04 -0.7199669E+00  0.1351569E+02  0.1734083E+00  0.6398013E+03 -0.3918292E+00  0.4796296E+02  0.3077981E+01  0.6026311E+04 -0.7853594E+00  0.1992388E+01  0.2366245E+01
  0.1724276E+02  0.1545065E+04  0.2018013E+01  0.3542775E+02 -0.2138362E+01  0.3215078E+03 -0.1578544E+01  0.1130597E+03  0.9211987E+00  0.5086988E+04  0.2173373E+01  0.3783221E+01 -0.1461403E+01
  0.1793207E+02  0.1374454E+04  0.2102421E+01  0.1943922E+02 -0.1402163E+01  0.2093244E+03 -0.2198834E+01  0.6482970E+02  0.1677299E+01  0.4291624E+04  0.2196910E+01  0.5353585E+01  0.5499858E+00
  0.1862138E+02  0.4041411E+03 -0.1259166E+01  0.3857788E+02  0.1725212E+01  0.2836933E+03 -0.2286046E+01  0.1015804E+03 -0.1177044E+01  0.1855159E+04 -0.1158270E+01  0.8674784E+01  0.1664612E+01
  0.1931069E+02  0.7603302E+03  0.3124905E+01  0.1289797E+02  0.1696635E+01  0.2652839E+03 -0.3135658E+01  0.5353923E+02 -0.1813010E+01  0.1837287E+04 -0.3068725E+01  0.1921121E+01  0.1329146E+01
  0.2000000E+02  0.9901979E+03  0.2799229E+01  0.4955587E+02  0.2781971E+01  0.9999202E+03 -0.2450598E+01  0.1466303E+03 -0.2192896E+00  0.2493761E+04  0.2693802E+01  0.4612956E+01  0.1976782E+01
