VARIABLES="w (rad/s)"  
"abs(F   1   1)" "angle(F   1   1)"
"abs(F   1   2)" "angle(F   1   2)"
"abs(F   1   3)" "angle(F   1   3)"
"abs(F   1   4)" "angle(F   1   4)"
"abs(F   1   5)" "angle(F   1   5)"
"abs(F   1   6)" "angle(F   1   6)"
Zone t="Excitation force - beta =   0.000 deg",I=    30,F=POINT
  0.1000000E-01  0.5155104E+03 -0.1570809E+01  0.4145272E-01  0.3022712E+01  0.7883287E+06 -0.2728261E-05  0.3295342E+00 -0.5504426E-01  0.2505569E+04 -0.1595553E+01  0.7979141E-02 -0.2928244E+01
  0.6993103E+00  0.7943232E+05 -0.1566943E+01  0.1224844E+01  0.1708166E+01  0.5990188E+06 -0.7476205E-01  0.5178789E+01 -0.1234385E+01  0.3765175E+06 -0.1567062E+01  0.2750904E+00  0.1501119E+01
  0.1388621E+01  0.2056203E+06 -0.1545013E+01  0.7403846E+01  0.2923306E+01  0.3163629E+06 -0.6254407E+00  0.3016288E+02 -0.1002082E+00  0.9348769E+06 -0.1545009E+01  0.3521638E+01  0.1583404E+01
  0.2077931E+01  0.1655948E+06 -0.2106676E+01  0.2928937E+02 -0.2125665E+01  0.1565922E+06 -0.1740550E+01  0.1256407E+03  0.1221198E+01  0.7103806E+06 -0.2105756E+01  0.1067605E+02  0.1341342E+01
  0.2767241E+01  0.1019287E+06  0.2725783E+01  0.2053782E+02 -0.2667506E+01  0.8396512E+05  0.2955306E+01  0.8727327E+02  0.8811728E+00  0.4046690E+06  0.2730803E+01  0.1112499E+02  0.8403007E+00
  0.3456552E+01  0.6668729E+05  0.7077075E+00  0.7212948E+02 -0.1075109E+01  0.4750068E+05  0.9012071E+00  0.2790427E+03  0.2102152E+01  0.2493485E+06  0.7129577E+00  0.5361898E+01 -0.6724156E+00
  0.4145863E+01  0.4434202E+05 -0.1871252E+01  0.4694162E+03 -0.6814302E+00  0.1433286E+05 -0.2086322E+01  0.1661566E+04  0.2572658E+01  0.1553177E+06 -0.1863642E+01  0.6133560E+01 -0.3027172E+01
  0.4835172E+01  0.3003091E+05  0.1310318E+01  0.1183165E+04  0.2590824E+01  0.1108605E+05 -0.2174220E+01  0.4100025E+04 -0.4057942E+00  0.9865762E+05  0.1315892E+01  0.5468256E+01 -0.1952451E+01
  0.5524483E+01  0.2071847E+05 -0.2321522E+01  0.6714633E+02 -0.2138762E+01  0.8566641E+04 -0.2231199E+01  0.2114121E+03  0.1143984E+01  0.6459802E+05 -0.2324920E+01  0.6745571E+01 -0.2679504E+01
  0.6213793E+01  0.1909621E+04  0.7010958E+00  0.8113091E+02 -0.3940647E+00  0.5771989E+04 -0.6907068E-01  0.7489227E+03  0.2316852E+01  0.1772404E+05  0.3138043E+01  0.3052999E+01 -0.3875222E+00
  0.6903103E+01  0.1163196E+05  0.1658437E+01  0.2780439E+03  0.1735561E+01  0.4505720E+04  0.2202295E+01  0.1016402E+04 -0.1351105E+01  0.3264058E+05  0.1674060E+01  0.1235292E+02 -0.1542495E+01
  0.7592414E+01  0.9826854E+04  0.2761549E+01  0.5378175E+02  0.3111467E+01  0.1902651E+04  0.2722985E+01  0.1767092E+03  0.9814481E-01  0.2856120E+05  0.2776316E+01  0.5836143E+01  0.2742322E+01
  0.8281725E+01  0.6893841E+04 -0.2806440E+01  0.2103708E+02 -0.2010656E+01  0.1464651E+04 -0.2817492E+01  0.6419537E+02  0.9394390E+00  0.1845182E+05 -0.2816873E+01  0.5431876E+01 -0.1362776E+01
  0.8971035E+01  0.4927696E+04 -0.2581635E+01  0.2860089E+02  0.2888244E+01  0.1071815E+04 -0.2156752E+01  0.8417417E+02 -0.1373473E+00  0.1246500E+05 -0.2607401E+01  0.3703282E+01 -0.2773964E+01
  0.9660344E+01  0.4834438E+04 -0.2703675E+01  0.3456923E+02 -0.2553308E+01  0.7090671E+03 -0.2602255E+01  0.1114444E+03  0.7211089E+00  0.1242377E+05 -0.2687507E+01  0.5447877E+01 -0.1689481E+01
  0.1034966E+02  0.3503414E+04  0.2670879E+01  0.5229777E+02  0.4331766E+00  0.3431605E+03  0.3107417E+01  0.1688455E+03 -0.2695506E+01  0.9348880E+04  0.2684962E+01  0.1116604E+02  0.2863528E+01
  0.1103897E+02  0.4116052E+04  0.2310507E+01  0.2494889E+03 -0.1886709E+00  0.3494635E+04  0.7436808E-01  0.7501148E+03  0.2956808E+01  0.1112076E+05  0.2355564E+01  0.8582661E+02  0.5350645E+00
  0.1172828E+02  0.5449241E+04 -0.8989109E+00  0.2713148E+02  0.2696797E+01  0.1208131E+04 -0.2554394E+01  0.9689466E+02 -0.8118080E+00  0.1705830E+05 -0.8597926E+00  0.1705614E+02  0.7526690E+00
  0.1241759E+02  0.1871793E+04 -0.2238799E+01  0.6784481E+02  0.7835099E+00  0.7975027E+03  0.1276837E+01  0.2715648E+03 -0.2257881E+01  0.4485912E+04 -0.2058850E+01  0.6747781E+01 -0.9661011E+00
  0.1310690E+02  0.9913492E+03  0.1198167E+01  0.7498051E+02  0.8430588E+00  0.2276735E+04  0.7599445E+00  0.2674987E+03 -0.2282250E+01  0.2048824E+04  0.6261016E+00  0.1608867E+02  0.2882201E+01
  0.1379621E+02  0.2068857E+04 -0.1311404E+01  0.7123616E+02 -0.7041378E+00  0.9401628E+03 -0.2462792E+01  0.2375105E+03  0.2564628E+01  0.5787997E+04 -0.1258124E+01  0.6103196E+01  0.3671498E+00
  0.1448552E+02  0.1217364E+04  0.1173407E+01  0.1577315E+02 -0.1695398E+01  0.7828041E+03 -0.2066044E+01  0.4821386E+02  0.1619241E+01  0.2794889E+04  0.1234717E+01  0.2957822E+01  0.2167440E+01
  0.1517483E+02  0.1863914E+04  0.2156188E+01  0.1210939E+03 -0.7904711E+00  0.5684392E+03  0.1043105E+01  0.4341551E+03  0.2318707E+01  0.6075971E+04  0.2257175E+01  0.6457928E+01  0.3591065E+00
  0.1586414E+02  0.9760098E+03 -0.6281590E+00  0.8698080E+02  0.1152829E+01  0.8479248E+03 -0.2023361E+01  0.1983780E+03 -0.2130028E+01  0.2461439E+04 -0.3948565E+00  0.3061427E+02  0.9310327E+00
  0.1655345E+02  0.1838478E+04 -0.7117096E+00  0.8936567E+01 -0.7070118E+00  0.6662686E+03 -0.3236693E+00  0.3926985E+02  0.2524647E+01  0.5362060E+04 -0.7756104E+00  0.1366346E+01  0.2835299E+01
  0.1724276E+02  0.1574346E+04  0.1916450E+01  0.3587376E+02 -0.2095318E+01  0.3307040E+03 -0.1621122E+01  0.1151575E+03  0.9488505E+00  0.5043109E+04  0.2098372E+01  0.3216893E+01 -0.1744993E+01
  0.1793207E+02  0.1184777E+04  0.1976624E+01  0.1420548E+02 -0.1155497E+01  0.2335795E+03 -0.2151667E+01  0.5146449E+02  0.1810331E+01  0.3778827E+04  0.2124695E+01  0.5385171E+01  0.7395346E+00
  0.1862138E+02  0.5830815E+03 -0.1132445E+01  0.3457429E+02  0.1795836E+01  0.2554161E+03 -0.2277706E+01  0.9387596E+02 -0.1092598E+01  0.2273618E+04 -0.1110078E+01  0.9139807E+01  0.1674583E+01
  0.1931069E+02  0.7278658E+03 -0.2580692E+01  0.1514492E+02  0.1615170E+01  0.2566527E+03 -0.3107657E+01  0.5925711E+02 -0.1829344E+01  0.1813672E+04 -0.2558583E+01  0.2384214E+01  0.1542980E+01
  0.2000000E+02  0.7751500E+03 -0.2791790E+01  0.4870155E+02  0.2774139E+01  0.1002656E+04 -0.2451312E+01  0.1445193E+03 -0.2224305E+00  0.1794964E+04 -0.3026937E+01  0.5495392E+01  0.2006661E+01
