VARIABLES="w (rad/s)"
"abs(F   1   1)" "angle(F   1   1)"
"abs(F   1   2)" "angle(F   1   2)"
"abs(F   1   3)" "angle(F   1   3)"
"abs(F   1   4)" "angle(F   1   4)"
"abs(F   1   5)" "angle(F   1   5)"
"abs(F   1   6)" "angle(F   1   6)"
Zone t="FKforce - beta =   0.000",I=    30,F=POINT
  0.1000000E-01  0.4178132E+03 -0.1570812E+01  0.4147720E-01  0.3141574E+01  0.7883644E+06  0.2512543E-07  0.3302307E+00  0.8889327E-05  0.2013034E+04 -0.1601614E+01  0.7801204E-02 -0.3135439E+01
  0.6993103E+00  0.6189420E+05 -0.1570796E+01  0.8907131E-01 -0.9100835E-03  0.7203981E+06  0.3941169E-05  0.7877212E+00  0.3139687E+01  0.2948561E+06 -0.1570986E+01  0.1623223E+00  0.1565673E+01
  0.1388621E+01  0.1947915E+06 -0.1570795E+01  0.5723577E-01  0.3083843E+01  0.5023869E+06  0.1528421E-04  0.3866294E+01 -0.3135330E+01  0.9053102E+06 -0.1570822E+01  0.2240717E+01  0.1563878E+01
  0.2077931E+01  0.2252850E+06 -0.1570799E+01  0.3541636E+00 -0.3110502E+01  0.1739220E+06  0.1391475E-04  0.8787297E+01 -0.3137406E+01  0.1035886E+07 -0.1570756E+01  0.7283795E+01  0.1570540E+01
  0.2767241E+01  0.2932303E+05 -0.1571097E+01  0.6718139E-01 -0.2232435E+01  0.3953109E+05 -0.3141155E+01  0.6678192E+01  0.3141332E+01  0.2080355E+06 -0.1570667E+01  0.6967244E+01  0.1574776E+01
  0.3456552E+01  0.6129864E+05  0.1570908E+01  0.1517683E+01 -0.1062153E+00  0.5821548E+04 -0.3138726E+01  0.7353386E+00  0.3666822E+00  0.2257493E+06  0.1570984E+01  0.2743181E+01 -0.1608330E+01
  0.4145863E+01  0.4043320E+05 -0.1570393E+01  0.1188333E+01 -0.3063712E+00  0.7596083E+04 -0.2880459E-02  0.3656587E+01  0.2898240E+01  0.1249856E+06 -0.1570071E+01  0.6582320E+00 -0.1844051E+01
  0.4835172E+01  0.2671627E+05  0.1570892E+01  0.2169490E+01 -0.3119428E+00  0.3277362E+04 -0.3129244E+01  0.5434539E+01  0.2762895E+01  0.7730799E+05  0.1570951E+01  0.6820047E+00 -0.1839046E+01
  0.5524483E+01  0.1671685E+05 -0.1569995E+01  0.1960686E+01 -0.5864924E+00  0.2717034E+03 -0.2986837E+01  0.7024771E+01  0.2647130E+01  0.4799720E+05 -0.1569283E+01  0.4238481E+00  0.3094059E+01
  0.6213793E+01  0.1621619E+04  0.1576319E+01  0.2792748E+01 -0.5433459E+00  0.2158717E+04 -0.1531028E-01  0.7699382E+01  0.2486494E+01  0.6774918E+04  0.1575900E+01  0.1292508E+01 -0.1900844E+01
  0.6903103E+01  0.9536432E+04  0.1572497E+01  0.2398533E+01 -0.6935630E+00  0.6908019E+03 -0.3082241E+01  0.7674023E+01  0.2374318E+01  0.2376569E+05  0.1572615E+01  0.3909577E+00 -0.2842410E+01
  0.7592414E+01  0.1249560E+04  0.1565458E+01  0.1633047E+01 -0.9555940E+00  0.9120311E+03 -0.3092365E+01  0.6521530E+01  0.2160505E+01  0.2203998E+04  0.1554860E+01  0.3565392E+00  0.2164250E+01
  0.8281725E+01  0.2901826E+04 -0.1563182E+01  0.9646465E+00 -0.9112629E+00  0.4338707E+03 -0.3035128E+01  0.4938249E+01  0.2052306E+01  0.7375038E+04 -0.1560666E+01  0.3143695E+00  0.2263130E+01
  0.8971035E+01  0.3079918E+04 -0.1558338E+01  0.8854706E+00  0.4601642E+00  0.2534806E+03 -0.2904523E+01  0.2830509E+01  0.2197198E+01  0.7432595E+04 -0.1555388E+01  0.3984675E+00  0.2127791E+01
  0.9660344E+01  0.1708748E+04 -0.1563250E+01  0.2132133E+01  0.6815336E+00  0.2671948E+03 -0.2867015E+01  0.2547013E+01  0.2889486E+01  0.4122833E+04 -0.1560220E+01  0.3961464E+00  0.1627265E+01
  0.1034966E+02  0.5979904E+03  0.1495148E+01  0.7628989E+01  0.4627661E+00  0.3247425E+03 -0.2916730E+01  0.1257844E+02 -0.2744482E+01  0.1124024E+04  0.1448255E+01  0.6259341E+00  0.1542543E+01
  0.1103897E+02  0.2604950E+04  0.1609450E+01  0.6862826E+01  0.1060980E+01  0.2785660E+03 -0.2520633E+01  0.7062314E+01 -0.1349033E+01  0.5909562E+04  0.1617557E+01  0.2705195E+01 -0.1160964E+01
  0.1172828E+02  0.5572778E+03 -0.1051517E+01  0.4426286E+02 -0.2681809E+01  0.6602975E+03  0.4125420E+00  0.8727254E+02  0.4501426E+00  0.1420071E+04 -0.1009096E+01  0.9454615E+00 -0.1102158E+01
  0.1241759E+02  0.7398461E+03 -0.2453997E+01  0.2253491E+02 -0.2646420E+01  0.1648597E+03  0.6007152E+00  0.4804159E+02  0.4920197E+00  0.1649043E+04 -0.2686461E+01  0.4096460E+01 -0.9060587E+00
  0.1310690E+02  0.2144585E+04  0.1830077E+01  0.1460398E+02 -0.2749376E+01  0.1162713E+03  0.4094582E+00  0.3182498E+02  0.3743211E+00  0.4943791E+04  0.1854141E+01  0.3215584E+01 -0.9309230E+00
  0.1379621E+02  0.9846713E+03 -0.1660525E+01  0.1340786E+02 -0.2733738E+01  0.1430883E+03  0.5182897E+00  0.2779239E+02  0.3747382E+00  0.2071246E+04 -0.1676412E+01  0.1350522E+01 -0.8980400E+00
  0.1448552E+02  0.4668093E+03  0.2365142E+00  0.2105618E+01  0.1875730E+01  0.3006596E+02 -0.1447897E+00  0.5088557E+01 -0.1160221E+01  0.1106827E+04  0.4670095E-01  0.2111225E+01  0.2230582E+01
  0.1517483E+02  0.5992885E+03  0.2131138E+01  0.3107424E+01  0.1625589E+01  0.6578643E+02 -0.2596909E+01  0.7089597E+01 -0.1341080E+01  0.1397074E+04  0.2147727E+01  0.6509969E+00 -0.9176776E+00
  0.1586414E+02  0.1180270E+04 -0.1273528E+01  0.1647577E+02  0.1107994E+01  0.4091125E+02 -0.1604086E+01  0.4249113E+02 -0.2047695E+01  0.2619242E+04 -0.1248757E+01  0.8456858E+00  0.2382935E+01
  0.1655345E+02  0.2788741E+03  0.2367163E+01  0.1042589E+02 -0.2246208E+01  0.5177013E+02  0.6767579E+00  0.2525255E+02  0.8929898E+00  0.6665588E+03  0.2277729E+01  0.9899302E+00 -0.1449108E+01
  0.1724276E+02  0.1610183E+03  0.5790647E+00  0.1597897E+01 -0.8288653E+00  0.1665204E+02 -0.2585707E+01  0.3788813E+01  0.1919112E+01  0.3823174E+03  0.4501334E+00  0.1137081E+01  0.2593593E+01
  0.1793207E+02  0.2484207E+03 -0.3977001E+00  0.6641440E+01  0.1189926E+01  0.2640197E+02 -0.1768546E+01  0.1541390E+02 -0.1923083E+01  0.5894883E+03 -0.4638474E+00  0.1016723E+01  0.2184625E+01
  0.1862138E+02  0.1892055E+03 -0.8591011E+00  0.4762222E+01 -0.1954260E+01  0.2836619E+02  0.7803817E+00  0.1128355E+02  0.1186734E+01  0.4300018E+03 -0.9007183E+00  0.4734234E+00  0.1858323E+01
  0.1931069E+02  0.4249739E+03 -0.1225396E+01  0.2518811E+01  0.1185371E+01  0.1130810E+02 -0.6826130E+00  0.5791439E+01 -0.1980924E+01  0.9214706E+03 -0.1218057E+01  0.6504567E+00  0.2220361E+01
  0.2000000E+02  0.6320812E+03 -0.1241295E+01  0.9369612E+00  0.5962806E-01  0.2827766E+01 -0.2706369E+01  0.2160010E+01  0.3134028E+01  0.1366532E+04 -0.1223808E+01  0.8951671E+00  0.2161223E+01
