VARIABLES="w (rad/s)"  
"A   1   1" "B   1   1"
"A   1   2" "B   1   2"
"A   1   3" "B   1   3"
"A   1   4" "B   1   4"
"A   1   5" "B   1   5"
"A   1   6" "B   1   6"
Zone t="Motion of body    1 in DoF   1",I=    30,F=POINT
  0.1000000E-01  0.3118853E+05  0.3259174E-04 -0.1569185E+01 -0.1965318E-08 -0.2558565E+01 -0.9344183E-04  0.5788756E+01  0.4419732E-07  0.1572964E+06  0.1522444E-03  0.5240417E+00  0.6120671E-08
  0.6993103E+00  0.4679620E+05  0.5673575E+03 -0.2472795E+01 -0.4069760E-01 -0.1734272E+01  0.2155748E+00  0.9890694E+01  0.1865274E+00  0.2236178E+06  0.2689349E+04 -0.5032039E-01 -0.1892046E-02
  0.1388621E+01  0.5314549E+05  0.2979563E+05 -0.2763639E+01 -0.2484043E+01 -0.2275387E+01  0.3870316E+00  0.1100224E+02  0.1099364E+02  0.2485021E+06  0.1354555E+06 -0.4120364E+00 -0.4218975E+00
  0.2077931E+01  0.2825125E+05  0.6487457E+05 -0.1201541E+01 -0.5504048E+01 -0.2604980E+01 -0.7538212E+00  0.3829058E+01  0.2333752E+02  0.1347261E+06  0.2779695E+06 -0.1590075E+00 -0.2041913E+01
  0.2767241E+01  0.1613472E+05  0.5723732E+05 -0.3304495E+01  0.1125428E+02  0.3912574E+01  0.8115583E+01  0.1487096E+02 -0.3807721E+02  0.8486102E+05  0.2275762E+06  0.2781764E+00 -0.3680329E+01
  0.3456552E+01  0.1315936E+05  0.4760870E+05 -0.1877984E+01  0.7195353E+00 -0.3630575E+01 -0.1750348E+02  0.6932678E+01  0.1029968E+01  0.7722161E+05  0.1788719E+06  0.8314053E+00 -0.4160812E+01
  0.4145863E+01  0.1321537E+05  0.3634442E+05 -0.6803249E+00 -0.4078747E+01 -0.1965891E+01 -0.4484444E+01  0.1710657E+01  0.1659806E+02  0.8044754E+05  0.1285599E+06  0.1171343E+01 -0.4051895E+01
  0.4835172E+01  0.1419035E+05  0.2700824E+05 -0.4367495E+00 -0.4840529E+01 -0.3055145E+01  0.3420577E+01  0.7902551E+00  0.1834217E+02  0.8619228E+05  0.9021002E+05  0.1349001E+01 -0.3618913E+01
  0.5524483E+01  0.1525858E+05  0.1989692E+05 -0.1662490E+01 -0.4618459E+01 -0.1073764E+01 -0.5457114E+01  0.4839332E+01  0.1992312E+02  0.9147249E+05  0.6280101E+05  0.1408855E+01 -0.3139407E+01
  0.6213793E+01  0.1540279E+05  0.1428111E+04  0.9120685E+01  0.1248087E+02 -0.7025609E+01  0.1687442E+03 -0.9854420E+02 -0.1908647E+03  0.9343119E+05 -0.1783201E+05  0.1388673E+01 -0.8301016E+01
  0.6903103E+01  0.1704413E+05  0.1156560E+05  0.2922180E+00 -0.7236784E+01 -0.2812216E+01 -0.1368177E+01 -0.1499672E+01  0.2206799E+02  0.9937180E+05  0.3399037E+05  0.1405883E+01 -0.1572957E+01
  0.7592414E+01  0.1808522E+05  0.1034580E+05  0.8288497E+01 -0.8891468E+02 -0.5014207E+00 -0.2515541E+02 -0.3048731E+02  0.3031949E+03  0.1034071E+06  0.3242344E+05  0.1600717E+01 -0.6735118E+00
  0.8281725E+01  0.1808501E+05  0.5183327E+04 -0.4931415E+00 -0.1716758E+02 -0.1943181E+01 -0.1476373E+02  0.2428961E-01  0.4151271E+02  0.1037554E+06  0.1234496E+05  0.1196106E+01 -0.3158139E+01
  0.8971035E+01  0.1854111E+05  0.4221664E+04  0.1350875E+00 -0.1953720E+02 -0.1111601E+01 -0.2765937E+02 -0.1403356E+01  0.5080332E+02  0.1054938E+06  0.1008832E+05  0.1250961E+01 -0.3068038E+01
  0.9660344E+01  0.1890143E+05  0.2032586E+04  0.1198559E+01 -0.1015029E+02 -0.1856536E+00 -0.3528942E+02 -0.3643983E+01  0.2086072E+01  0.1069163E+06  0.3202290E+04  0.1365718E+01 -0.6807597E+01
  0.1034966E+02  0.1952792E+05  0.4190579E+04  0.2141378E+01 -0.1114878E+03  0.4352341E+01  0.4880233E+02 -0.5073785E+01  0.4006575E+03  0.1090452E+06  0.1292957E+05  0.2525643E+01  0.8011613E+01
  0.1103897E+02  0.1943478E+05  0.2256728E+04  0.7152277E+01  0.3785077E+01 -0.8259421E+01 -0.9364385E+02 -0.2156000E+02 -0.1172006E+02  0.1088303E+06  0.6084815E+04  0.2048816E+01  0.1786649E+02
  0.1172828E+02  0.2005569E+05  0.9733270E+03 -0.8126432E+01  0.1329655E+02 -0.1930131E+00 -0.2225522E+03  0.2792826E+02  0.5352218E+01  0.1108858E+06  0.3669420E+04  0.9320408E+00  0.5840930E+01
  0.1241759E+02  0.1982633E+05  0.5879194E+03  0.3757286E+01  0.3847293E+02 -0.1494273E+02 -0.6034507E+02 -0.1154918E+02 -0.1415286E+03  0.1102281E+06  0.6960308E+03  0.8188806E+00  0.6104895E+01
  0.1310690E+02  0.1997629E+05  0.1062121E+04  0.3209431E+01  0.8058453E+01 -0.2242625E+02  0.1524496E+03 -0.1076456E+02 -0.3759262E+02  0.1107462E+06  0.2523562E+04  0.7221204E+00  0.2654908E+01
  0.1379621E+02  0.2009785E+05  0.8277934E+03  0.1830180E+01 -0.1617202E+02 -0.1399490E+02 -0.2000107E+03 -0.5800876E+01  0.5393696E+02  0.1111886E+06  0.1875960E+04  0.8631999E+00  0.8363519E+00
  0.1448552E+02  0.2021126E+05 -0.6967978E+02  0.3587291E+01  0.1886330E+01  0.3413877E+01  0.2959814E+02 -0.1126516E+02 -0.1402928E+02  0.1116108E+06 -0.8619789E+03  0.1022328E+01  0.1968425E+01
  0.1517483E+02  0.2042668E+05  0.4271897E+03 -0.7457218E+00 -0.5390851E+02  0.3325675E+01  0.1880569E+02  0.5875461E+01  0.2123732E+03  0.1123171E+06  0.1500016E+04  0.1464702E+01  0.2779808E+01
  0.1586414E+02  0.2036620E+05  0.8233041E+03 -0.6122962E+00 -0.5477506E+02 -0.6281707E+01  0.1932147E+03 -0.2889037E+01  0.2135062E+03  0.1121475E+06  0.1869418E+04 -0.4463348E-01 -0.1517312E+01
  0.1655345E+02  0.2052234E+05  0.6479230E+03  0.3311795E+01 -0.2927497E+02 -0.7858894E+01  0.7071117E+02 -0.1315101E+02  0.1023457E+03  0.1126831E+06  0.2033011E+04  0.9071319E+00  0.7153229E+00
  0.1724276E+02  0.2053965E+05 -0.5260533E+03  0.4758500E+01  0.3042442E+02 -0.1095224E+02 -0.1087268E+03 -0.1718966E+02 -0.9608128E+02  0.1127757E+06 -0.1779476E+04  0.9487010E+00  0.1204422E+01
  0.1793207E+02  0.2054449E+05 -0.2581762E+03 -0.3129282E+01  0.6820424E+01  0.3188080E+01 -0.1529450E+02  0.9101182E+01  0.6523576E+01  0.1127971E+06 -0.1078966E+04  0.7316990E+00  0.4112540E+01
  0.1862138E+02  0.2059707E+05 -0.3106114E+03 -0.3314380E+01  0.6121350E+02  0.3662634E+01 -0.8766254E+02  0.9857367E+01 -0.1823778E+03  0.1129845E+06 -0.9539003E+03  0.6874150E+00  0.3020176E+01
  0.1931069E+02  0.2063616E+05  0.1915556E+01 -0.1589828E+01 -0.2799385E+02  0.2195100E+01  0.2113201E+02  0.4746472E+01  0.8937065E+02  0.1131011E+06  0.4155747E+03  0.9204410E+00 -0.2904912E+01
  0.2000000E+02  0.2065635E+05  0.1078554E+03  0.1875009E+01 -0.3526012E+01 -0.6827162E+01 -0.4154534E+01 -0.7084813E+01  0.9033891E+01  0.1131726E+06  0.3749460E+03  0.8042774E+00  0.6185079E+00
Zone t="Motion of body    1 in DoF   2",I=    30,F=POINT
  0.1000000E-01 -0.1269641E+01 -0.3514098E-06  0.3167963E+05  0.3335427E-04 -0.2665684E+02 -0.1736554E-01 -0.1593185E+06 -0.1567089E-03 -0.5020632E+01  0.2432475E-06 -0.9359741E-01  0.8112948E-08
  0.6993103E+00 -0.1978118E+01 -0.3320824E-01  0.4738070E+05  0.5740505E+03 -0.1824066E+02 -0.5641424E+01 -0.2262945E+06 -0.2722364E+04 -0.8131085E+01 -0.1513386E+00 -0.2574508E+01 -0.3574863E-01
  0.1388621E+01 -0.2140337E+01 -0.1979749E+01  0.5370145E+05  0.3005595E+05 -0.7148770E+01 -0.1582101E+02 -0.2512049E+06 -0.1368692E+06 -0.8696384E+01 -0.8766337E+01 -0.3976912E+01 -0.2839864E+01
  0.2077931E+01 -0.7873297E+00 -0.3539375E+01  0.2863725E+05  0.6499502E+05 -0.1084638E+01 -0.1362889E+02 -0.1365287E+06 -0.2795699E+06 -0.2694240E+01 -0.1501197E+02 -0.1971136E+01 -0.9434028E+01
  0.2767241E+01 -0.3007906E+01  0.1290240E+02  0.1663121E+05  0.5633762E+05 -0.1381668E+02  0.4291564E+02 -0.8679757E+05 -0.2255864E+06 -0.1376167E+02  0.4643031E+02  0.2186199E+00 -0.1177345E+02
  0.3456552E+01 -0.1857620E+01  0.2545792E+01  0.1352393E+05  0.4808932E+05 -0.8725223E+01  0.2756156E+02 -0.7842783E+05 -0.1827628E+06 -0.7326920E+01  0.6427965E+01  0.1516313E+01 -0.1427048E+02
  0.4145863E+01 -0.7797383E+00 -0.2321246E+01  0.1347008E+05  0.3737181E+05 -0.1061374E+02  0.1865293E+02 -0.8113267E+05 -0.1346528E+06 -0.2633020E+01 -0.1023265E+02  0.2333564E+01 -0.1519149E+02
  0.4835172E+01 -0.6463346E+00 -0.3156170E+01  0.1438239E+05  0.2815641E+05 -0.1544006E+02  0.7064394E+01 -0.8658128E+05 -0.9655147E+05 -0.2047000E+01 -0.1301168E+02  0.2818981E+01 -0.1495336E+02
  0.5524483E+01 -0.1751088E+01 -0.2830182E+01  0.1536559E+05  0.2080115E+05 -0.2236036E+02  0.1102676E+02 -0.9151906E+05 -0.6769333E+05 -0.5607250E+01 -0.1351384E+02  0.3159564E+01 -0.1393688E+02
  0.6213793E+01 -0.1051363E+01 -0.3245506E+02  0.1561143E+05 -0.2186049E+04 -0.7175681E+02 -0.6886134E+03 -0.9439656E+05  0.2805519E+05  0.2915677E+02  0.5659674E+01  0.2826093E+01  0.6689221E+00
  0.6903103E+01  0.1010195E+00 -0.4527398E+01  0.1718356E+05  0.1256038E+05 -0.1994184E+02 -0.7035245E+01 -0.9955989E+05 -0.3913677E+05  0.2223314E+00 -0.1404850E+02  0.3342340E+01 -0.1306908E+02
  0.7592414E+01  0.8855977E+01 -0.7957204E+02  0.1909312E+05  0.1179678E+05  0.2292970E+02  0.1243750E+03 -0.1068785E+06 -0.4157355E+05  0.3115834E+02 -0.2689159E+03  0.2130164E+01 -0.1508605E+02
  0.8281725E+01 -0.7650514E+00 -0.1954309E+02  0.1816152E+05  0.2624314E+04 -0.2023246E+02 -0.1819110E+03 -0.1038539E+06 -0.3868979E+04 -0.1144115E+01 -0.4596548E+02  0.3768618E+01 -0.3884892E+01
  0.8971035E+01  0.6642038E-01 -0.2143704E+02  0.1867354E+05  0.2353565E+04 -0.1730009E+02 -0.1393779E+03 -0.1057601E+06 -0.4257898E+04  0.6962259E+00 -0.5535806E+02  0.3428860E+01 -0.5062895E+01
  0.9660344E+01  0.1611513E+01 -0.1879087E+02  0.1918538E+05 -0.9828806E+03 -0.1010253E+02 -0.1985059E+03 -0.1077455E+06  0.6490732E+04  0.4395711E+01 -0.2131988E+02  0.3200646E+01  0.4851315E+01
  0.1034966E+02  0.5018124E+01 -0.7173347E+02  0.2015472E+05  0.3450226E+04  0.8581738E+01  0.4395478E+02 -0.1111049E+06 -0.1203850E+05  0.1148280E+02 -0.2898540E+03  0.5702633E+00 -0.2729928E+02
  0.1103897E+02  0.4444790E+00  0.4326261E+02  0.1974203E+05  0.2443581E+04 -0.2165337E+02 -0.1759294E+02 -0.1096680E+06 -0.7648920E+04  0.6799796E+01  0.1116679E+03  0.5669051E+01 -0.1142638E+02
  0.1172828E+02 -0.4360000E+01 -0.1328172E+02  0.2042024E+05 -0.2419906E+03  0.4295405E+01 -0.5244345E+02 -0.1120860E+06  0.5833058E+03 -0.1330987E+02 -0.1367112E+03  0.7709154E+01  0.1470603E+02
  0.1241759E+02 -0.2450130E+01 -0.2766423E+02  0.2018782E+05 -0.5338350E+03 -0.1025113E+02 -0.1192620E+03 -0.1113007E+06  0.2519485E+04 -0.6899975E+01 -0.9732320E+02  0.2657043E+01 -0.2668581E+02
  0.1310690E+02 -0.2377585E+00 -0.3918430E+02  0.2033122E+05  0.7967019E+03 -0.1371146E+02 -0.5224085E+02 -0.1118012E+06 -0.2223763E+04  0.3687686E-01 -0.1382280E+03  0.2040796E+01 -0.1477172E+02
  0.1379621E+02  0.3830116E+01 -0.2579565E+02  0.2047037E+05  0.6073380E+03 -0.1372625E+02 -0.6268644E+02 -0.1123117E+06 -0.1739944E+04  0.1311114E+02 -0.7887260E+02  0.2850882E+01 -0.4153351E+01
  0.1448552E+02  0.1512104E+01 -0.2553483E+01  0.2060458E+05 -0.3465251E+03 -0.9675048E+01 -0.1013504E+03 -0.1128060E+06  0.1438639E+04  0.3496934E+01  0.3262524E+01  0.1595890E+01  0.2356854E+01
  0.1517483E+02  0.9790136E+00  0.4385089E+02  0.2079200E+05 -0.3273178E+02 -0.2579256E+01 -0.2726884E+02 -0.1134678E+06  0.8039584E+02  0.3467680E+00  0.1129459E+03 -0.7236518E+00 -0.1622586E+02
  0.1586414E+02 -0.3153634E+01 -0.2071503E+02  0.2078320E+05  0.5751205E+03 -0.1003058E+02 -0.7217704E+02 -0.1134351E+06 -0.1927492E+04 -0.4284114E+01 -0.6116253E+02  0.6218615E+01 -0.5200902E+01
  0.1655345E+02 -0.1706909E+01 -0.2520246E+01  0.2088269E+05  0.2770445E+03 -0.1318259E+01  0.1707585E+02 -0.1138081E+06 -0.8648954E+03 -0.7128166E+01 -0.3398121E+02  0.2840684E+01 -0.2478404E+02
  0.1724276E+02 -0.2450337E+01 -0.4345033E+02  0.2090864E+05 -0.2735110E+03 -0.5970678E+01 -0.4512627E+02 -0.1139121E+06  0.1007623E+04 -0.6920153E+01 -0.1647954E+03  0.2878850E+01 -0.1646924E+02
  0.1793207E+02  0.4529120E+01  0.4179557E+02  0.2096467E+05 -0.3052280E+02 -0.6802716E+01 -0.2986129E+02 -0.1141099E+06  0.8291881E+02  0.1395814E+02  0.1479105E+03  0.3199860E+01 -0.8426461E+01
  0.1862138E+02 -0.4331885E+00 -0.6081861E+02  0.2100828E+05 -0.2636925E+03 -0.6086061E+01 -0.3565741E+02 -0.1142715E+06  0.8237368E+03  0.3333382E+01 -0.1567904E+03  0.4046000E+01  0.3524881E+01
  0.1931069E+02  0.4411340E+01 -0.4870825E+02  0.2104020E+05  0.2076881E+03 -0.5798055E+01 -0.9151201E+01 -0.1143782E+06 -0.7713685E+03  0.1312872E+02 -0.3967086E+02  0.3390178E+01  0.1734727E+02
  0.2000000E+02 -0.7472726E+00  0.4668858E+02  0.2105333E+05  0.7326073E+02 -0.7578045E+01  0.2925004E+02 -0.1144306E+06 -0.2733040E+03 -0.3291764E+01  0.1134166E+03  0.2751783E+01 -0.1104348E+02
Zone t="Motion of body    1 in DoF   3",I=    30,F=POINT
  0.1000000E-01 -0.2257576E+01  0.8821487E-05 -0.3070927E+01 -0.1317143E-04  0.3582722E+06  0.2182499E+03  0.1164120E+02  0.6390810E-05 -0.4129591E+02 -0.1710102E-01 -0.3662872E-01  0.4670322E-05
  0.6993103E+00 -0.2577351E+01  0.9131791E-01  0.1063186E+01  0.4910990E-01  0.2570272E+06  0.6402807E+05 -0.8168260E+01 -0.1811052E+00 -0.3495627E+02 -0.4588853E+01 -0.5939627E-01  0.3363749E-02
  0.1388621E+01 -0.3098852E+01 -0.1591428E+00  0.5440681E+01  0.4959699E+01  0.1573490E+06  0.1394878E+06 -0.2817307E+02 -0.2359560E+02 -0.2982764E+02 -0.1227262E+02 -0.8558321E-01  0.8080497E-02
  0.2077931E+01  0.2045512E+00  0.4887352E+00  0.1225758E+02  0.6040761E+02  0.1202406E+06  0.1132036E+06 -0.4622543E+02 -0.2629278E+03 -0.1454786E+02 -0.1072963E+02 -0.2612898E+00 -0.2377141E+00
  0.2767241E+01 -0.6187071E+01 -0.1842635E+02 -0.1509512E+01 -0.2446331E+01  0.1240320E+06  0.8055849E+05  0.1069694E+01 -0.1662618E+02 -0.4389153E+02 -0.9304475E+02 -0.3988421E-01  0.5128592E-01
  0.3456552E+01 -0.9558852E+01 -0.4352861E+02  0.1280699E+02 -0.1389411E+03  0.1304730E+06  0.5433049E+05 -0.5232600E+02  0.4673117E+03 -0.3177081E+02 -0.1287598E+03  0.1783951E+00  0.1156365E+01
  0.4145863E+01  0.1901212E+02  0.6354741E+02 -0.4826428E+02  0.4130443E+03  0.1348226E+06  0.1146291E+05  0.2147538E+03 -0.1428717E+04  0.2455761E+02  0.1542806E+03 -0.7010984E+00 -0.2543293E+01
  0.4835172E+01  0.5983086E+02  0.2549237E+03 -0.1427054E+03  0.1193311E+04  0.1359246E+06 -0.5904993E+04  0.6194383E+03 -0.3823222E+04  0.1160285E+03  0.7066639E+03 -0.2369106E+01 -0.7050428E+01
  0.5524483E+01 -0.1684505E+01 -0.2960250E+02 -0.2076139E+01  0.3730454E+01  0.1438169E+06  0.8340377E+04  0.1927424E+02 -0.7262546E+02 -0.1855282E+02 -0.8599199E+02  0.7444000E-01  0.4284537E+00
  0.6213793E+01 -0.2142483E+01 -0.1922907E+00 -0.1328785E+02 -0.1644681E+02  0.1457511E+06  0.4340174E+04  0.5599219E+02  0.5635785E+02 -0.2453453E+02  0.9928231E+01 -0.2397329E-02 -0.9378033E-01
  0.6903103E+01  0.1446852E+01  0.3416725E+02 -0.3235964E+02 -0.1240929E+03  0.1471904E+06 -0.6181188E+03  0.1156431E+03  0.4733981E+03 -0.1258732E+02  0.7125100E+02 -0.3131130E+00 -0.4009458E+01
  0.7592414E+01 -0.1478848E+01 -0.1779234E+02 -0.1170201E+02  0.5018168E+01  0.1483785E+06  0.1540287E+04  0.5202384E+02 -0.4098402E+02 -0.2022580E+02 -0.6253466E+02  0.7959574E-02 -0.3625636E+00
  0.8281725E+01 -0.1158102E+01 -0.7810877E+01 -0.1097597E+02  0.3714382E+01  0.1492029E+06  0.1455172E+04  0.4983234E+02 -0.3089494E+02 -0.2010311E+02 -0.1854025E+02  0.6103450E-01 -0.2576239E-01
  0.8971035E+01 -0.8226240E+00 -0.6131347E+01 -0.8694862E+01  0.1626604E+02  0.1498073E+06  0.1322686E+04  0.4209267E+02 -0.7959098E+02 -0.1910904E+02 -0.1158194E+02  0.1071434E+00  0.1304642E+00
  0.9660344E+01 -0.1370052E+01 -0.3234430E+01 -0.9857216E+01  0.5433404E+00  0.1502406E+06  0.9057853E+03  0.4564497E+02 -0.1620575E+02 -0.2113355E+02 -0.4397532E+01  0.1310460E+00  0.2168202E-01
  0.1034966E+02 -0.2204009E+01 -0.3342120E+02 -0.8886208E+01 -0.3557195E+02  0.1505689E+06  0.1923472E+03  0.4189687E+02  0.1102133E+03 -0.2242189E+02 -0.1076323E+03  0.2308169E+00 -0.9748299E+00
  0.1103897E+02 -0.5754577E+01  0.6081668E+02  0.1815312E+01 -0.2155173E+02  0.1509942E+06 -0.4983717E+03  0.6612439E+01  0.9523663E+02 -0.4763646E+02  0.1825500E+03  0.1315537E+01  0.1394901E+02
  0.1172828E+02 -0.4758157E+01  0.6693728E+02 -0.1052497E+02 -0.2224752E+02  0.1510923E+06  0.2110485E+03  0.4528910E+02  0.8732181E+02 -0.3625669E+02  0.2116934E+03 -0.9942921E-01  0.5768468E+00
  0.1241759E+02  0.2541705E+01  0.5079435E+02 -0.6509181E+01  0.2846906E+02  0.1513175E+06  0.5328542E+03  0.3181466E+02 -0.9890195E+02 -0.5851651E+01  0.1835988E+03 -0.3182658E+00  0.1968540E+01
  0.1310690E+02  0.8981763E+00  0.2124475E+02 -0.4642016E+01 -0.6211973E+01  0.1514809E+06  0.1149724E+03  0.2487231E+02  0.1917035E+02 -0.8821039E+01  0.9922800E+02 -0.2083486E+00  0.2516947E+01
  0.1379621E+02 -0.4159260E+01  0.1655924E+02 -0.5404370E+01 -0.1229130E+02  0.1515772E+06  0.1660494E+03  0.2747609E+02  0.4253936E+02 -0.2734916E+02  0.8795279E+02 -0.2052522E+00  0.1875551E+00
  0.1448552E+02 -0.2680261E+01  0.1934876E+02 -0.6257772E+01  0.8432928E+01  0.1516347E+06  0.2355770E+03  0.3056320E+02 -0.3334801E+02 -0.2216580E+02  0.6436198E+02  0.3087632E-03 -0.4224675E+00
  0.1517483E+02 -0.6129456E+01 -0.1910211E+02 -0.7710574E+01 -0.1369638E+02  0.1516856E+06  0.7037578E+02  0.3592384E+02  0.4995798E+02 -0.3396316E+02 -0.6952425E+02  0.9848975E-01 -0.2214060E+00
  0.1586414E+02  0.6077303E+01 -0.6631866E+02 -0.7797145E+01 -0.4086710E+02  0.1517467E+06  0.2913063E+02  0.3340295E+02  0.1444046E+03 -0.8582631E+01 -0.5731693E+02 -0.4154531E+00 -0.2235155E+01
  0.1655345E+02 -0.4394168E+01 -0.1162705E+03 -0.6758472E+01 -0.1629493E+02  0.1517744E+06 -0.6740802E+02  0.3182262E+02  0.5821175E+02 -0.2791082E+02 -0.3252641E+03  0.8180586E-01  0.2031233E+00
  0.1724276E+02 -0.4871866E+00 -0.5831675E+02 -0.6020897E+01  0.4046113E+01  0.1518165E+06  0.4549627E+02  0.2918041E+02 -0.1505591E+02 -0.1928464E+02 -0.1683509E+03  0.5979246E-01 -0.2400616E+00
  0.1793207E+02 -0.3421675E+01  0.1302563E+02 -0.8023500E+01 -0.2923920E+01  0.1518372E+06  0.8407152E+02  0.3564549E+02  0.1471832E+02 -0.2878839E+02  0.5591877E+02 -0.7147866E-01  0.1726545E+01
  0.1862138E+02  0.1066308E+01  0.6632140E+02 -0.7934378E+01  0.1116846E+02  0.1518679E+06  0.9049443E+02  0.3588499E+02 -0.3631001E+02 -0.1710917E+02  0.2084221E+03 -0.2682772E-02 -0.1072282E+00
  0.1931069E+02 -0.6521965E+00  0.3782227E+02 -0.7958800E+01 -0.3896121E+01  0.1518931E+06  0.2744747E+02  0.3569241E+02  0.1748131E+02 -0.2150237E+02  0.7356860E+02 -0.2038660E-01  0.7349929E-01
  0.2000000E+02 -0.1617635E+01 -0.3496927E+02 -0.7372263E+01 -0.3848514E+01  0.1519196E+06 -0.2424884E+02  0.3351755E+02  0.1438283E+02 -0.2185012E+02 -0.1122387E+03 -0.6857474E-01  0.3941199E+00
Zone t="Motion of body    1 in DoF   4",I=    30,F=POINT
  0.1000000E-01  0.2480667E+01  0.1048428E-05 -0.1567023E+06 -0.1511426E-03  0.7356725E+02  0.4381445E-01  0.8432104E+06  0.7040295E-03  0.9623289E+01  0.3545487E-05 -0.4436631E+01 -0.2860273E-07
  0.6993103E+00  0.3022583E+01  0.7958676E-01 -0.2254902E+06 -0.2709379E+04  0.3943334E+02  0.1118434E+02  0.1136559E+07  0.1284887E+05  0.1238271E+02  0.3583701E+00  0.6565616E+01  0.1681436E+00
  0.1388621E+01  0.2167252E+01  0.4430502E+01 -0.2501886E+06 -0.1361489E+06  0.9238208E+01  0.2801759E+02  0.1232309E+07  0.6199980E+06  0.8515724E+01  0.1909433E+02  0.1232371E+02  0.1286112E+02
  0.2077931E+01 -0.3869330E+01 -0.7861315E+01 -0.1360328E+06 -0.2777254E+06 -0.7680459E+01 -0.4451378E+02  0.7121988E+06  0.1194616E+07 -0.1456397E+02 -0.3454296E+02  0.2344728E+01  0.4063777E+02
  0.2767241E+01  0.7340362E+01 -0.9321053E+02 -0.8627648E+05 -0.2213710E+06  0.5596151E+02 -0.3385540E+03  0.5070988E+06  0.8864253E+06  0.4310852E+02 -0.3529516E+03 -0.7674555E+01  0.4699726E+02
  0.3456552E+01  0.6547679E+01 -0.2492846E+02 -0.7857990E+05 -0.1824456E+06  0.4233410E+02 -0.1843465E+03  0.4961130E+06  0.6934258E+06  0.2767651E+02 -0.8256450E+02 -0.1222323E+02  0.5493382E+02
  0.4145863E+01  0.2876689E+01  0.3442849E+01 -0.8129802E+05 -0.1345259E+06  0.4676218E+02 -0.1019437E+03  0.5186272E+06  0.4847614E+06  0.9995667E+01  0.1940822E+02 -0.1484600E+02  0.5559733E+02
  0.4835172E+01  0.2262671E+01  0.8293691E+01 -0.8676070E+05 -0.9625784E+05  0.6424957E+02  0.9597987E+01  0.5469763E+06  0.3301730E+06  0.7061146E+01  0.3699101E+02 -0.1617576E+02  0.5206012E+02
  0.5524483E+01  0.5700405E+01  0.8125604E+01 -0.9174434E+05 -0.6802501E+05  0.8843181E+02 -0.8479394E+02  0.5702006E+06  0.2214706E+06  0.1807301E+02  0.4061844E+02 -0.1699055E+02  0.4669117E+02
  0.6213793E+01  0.4470538E+01  0.1052851E+03 -0.9332641E+05  0.7110769E+04  0.2637073E+03  0.2119646E+04  0.5823169E+06 -0.9099466E+05 -0.9324711E+02  0.1790878E+02 -0.1594662E+02 -0.4090940E+01
  0.6903103E+01 -0.5938890E+00  0.1831089E+02 -0.9976323E+05 -0.3831482E+05  0.7298495E+02  0.3942907E+02  0.6045028E+06  0.1194283E+06 -0.2060648E+01  0.5642488E+02 -0.1698195E+02  0.4072461E+02
  0.7592414E+01 -0.2579469E+02  0.2536892E+03 -0.1062516E+06 -0.3452461E+05 -0.5373457E+02 -0.3713983E+03  0.6294505E+06  0.1217643E+06 -0.9141927E+02  0.8588625E+03 -0.1302706E+02  0.4383997E+02
  0.8281725E+01  0.1929775E+01  0.5585460E+02 -0.1039390E+06 -0.7564961E+04  0.7738470E+02  0.5036390E+03  0.6222037E+06  0.1089525E+05  0.2315564E+01  0.1293004E+03 -0.1795835E+02  0.1392224E+02
  0.8971035E+01 -0.7859058E+00  0.6201948E+02 -0.1058697E+06 -0.6700808E+04  0.6749881E+02  0.3663081E+03  0.6294536E+06  0.1199202E+05 -0.4012823E+01  0.1589937E+03 -0.1677940E+02  0.1650282E+02
  0.9660344E+01 -0.4908231E+01  0.4942425E+02 -0.1076776E+06  0.2955850E+04  0.4654672E+02  0.5403320E+03  0.6364627E+06 -0.1902874E+05 -0.1346243E+02  0.4793644E+02 -0.1616519E+02 -0.1016837E+02
  0.1034966E+02 -0.1369388E+02  0.2187647E+03 -0.1107004E+06 -0.9712686E+04 -0.6394625E+01 -0.1257687E+03  0.6470469E+06  0.3395943E+05 -0.3113795E+02  0.8696445E+03 -0.8665776E+01  0.7302760E+02
  0.1103897E+02 -0.2894654E+01 -0.1234575E+03 -0.1097168E+06 -0.7096252E+04  0.7403893E+02  0.6480042E+02  0.6437084E+06  0.2213039E+05 -0.2325033E+02 -0.3145466E+03 -0.2311006E+02  0.3001330E+02
  0.1172828E+02  0.1226763E+02  0.2954018E+02 -0.1117826E+06  0.6801215E+03  0.5698604E+01  0.1489471E+03  0.6511478E+06 -0.1725776E+04  0.3822047E+02  0.3563455E+03 -0.2760234E+02 -0.3640456E+02
  0.1241759E+02  0.5800295E+01  0.6659167E+02 -0.1112732E+06  0.1462182E+04  0.4352492E+02  0.3145442E+03  0.6495024E+06 -0.6959270E+04  0.1533474E+02  0.2344437E+03 -0.1402793E+02  0.6948029E+02
  0.1310690E+02 -0.4010076E+00  0.1029037E+03 -0.1117927E+06 -0.2264456E+04  0.5187316E+02  0.1485192E+03  0.6513747E+06  0.6362542E+04 -0.4252179E+01  0.3640274E+03 -0.1223017E+02  0.3765303E+02
  0.1379621E+02 -0.1078419E+02  0.7249912E+02 -0.1122789E+06 -0.1719066E+04  0.5232891E+02  0.1640490E+03  0.6531959E+06  0.4948418E+04 -0.3740016E+02  0.2189258E+03 -0.1428813E+02  0.1119940E+02
  0.1448552E+02 -0.4826863E+01 -0.1051339E+01 -0.1127369E+06  0.9749813E+03  0.4214417E+02  0.2764044E+03  0.6549069E+06 -0.4028741E+04 -0.1205584E+02 -0.3365670E+02 -0.1116276E+02 -0.5853365E+01
  0.1517483E+02 -0.2732410E+01 -0.1213598E+03 -0.1133224E+06  0.1035647E+03  0.2298247E+02  0.7818362E+02  0.6570071E+06 -0.2800661E+03 -0.1236903E+01 -0.3125056E+03 -0.4819087E+01  0.4204999E+02
  0.1586414E+02  0.7947774E+01  0.6403698E+02 -0.1133610E+06 -0.1608877E+04  0.4276472E+02  0.2070567E+03  0.6571565E+06  0.5448635E+04  0.9317272E+01  0.1861690E+03 -0.2367459E+02  0.9048141E+01
  0.1655345E+02  0.4044926E+01  0.1053083E+02 -0.1136782E+06 -0.7207718E+03  0.1895913E+02 -0.4324790E+02  0.6583500E+06  0.2256050E+04  0.1755845E+02  0.1022376E+03 -0.1408601E+02  0.6824098E+02
  0.1724276E+02  0.5133476E+01  0.1328758E+03 -0.1137906E+06  0.7281718E+03  0.3162478E+02  0.1206781E+03  0.6587886E+06 -0.2684111E+04  0.1414186E+02  0.4845572E+03 -0.1412532E+02  0.3968268E+02
  0.1793207E+02 -0.1259406E+02 -0.1102266E+03 -0.1139783E+06  0.5318802E+02  0.3407393E+02  0.7969280E+02  0.6594517E+06 -0.1263092E+03 -0.3892498E+02 -0.3967549E+03 -0.1526681E+02  0.2010032E+02
  0.1862138E+02  0.9898541E+00  0.1724354E+03 -0.1141272E+06  0.7151382E+03  0.3192464E+02  0.9441631E+02  0.6599960E+06 -0.2227405E+04 -0.1010760E+02  0.4427960E+03 -0.1749472E+02 -0.1268593E+02
  0.1931069E+02 -0.1268700E+02  0.1365932E+03 -0.1142400E+06 -0.5541870E+03  0.3105770E+02  0.2530962E+02  0.6603775E+06  0.2056943E+04 -0.3795356E+02  0.1146970E+03 -0.1570326E+02 -0.4815282E+02
  0.2000000E+02  0.1768374E+01 -0.1320828E+03 -0.1142992E+06 -0.2152077E+03  0.3577630E+02 -0.7918114E+02  0.6606011E+06  0.7994949E+03  0.8124063E+01 -0.3246053E+03 -0.1396198E+02  0.3142449E+02
Zone t="Motion of body    1 in DoF   5",I=    30,F=POINT
  0.1000000E-01  0.1547613E+06  0.1504073E-03 -0.2997527E+01 -0.2534776E-06 -0.5095636E+02 -0.2408244E-01  0.1015070E+02  0.9239274E-06  0.8363912E+06  0.6985439E-03  0.4785815E+01  0.8957723E-08
  0.6993103E+00  0.2231116E+06  0.2680702E+04 -0.4083447E+01 -0.9922669E-01 -0.3664215E+02 -0.5995544E+01  0.1569271E+02  0.4400064E+00  0.1126753E+07  0.1270689E+05  0.2218953E+01 -0.8959806E-02
  0.1388621E+01  0.2478645E+06  0.1349813E+06 -0.3513235E+01 -0.5902142E+01 -0.2835818E+02 -0.1613366E+02  0.1308124E+02  0.2544609E+02  0.1222135E+07  0.6136454E+06  0.6817770E+00 -0.1919951E+01
  0.2077931E+01  0.1344465E+06  0.2767796E+06  0.3638371E+01  0.3046425E+01 -0.2266128E+02 -0.2786826E+02 -0.1466136E+02 -0.1450135E+02  0.7061281E+06  0.1185928E+07  0.1808764E+01 -0.9032551E+01
  0.2767241E+01  0.8463128E+05  0.2251805E+06 -0.7567627E+01  0.9128763E+02  0.1683162E+02  0.2788877E+01  0.4597157E+02 -0.3375358E+03  0.5022738E+06  0.8953203E+06  0.3736835E+01 -0.1519459E+02
  0.3456552E+01  0.7732883E+05  0.1785723E+06 -0.6415583E+01  0.2179235E+02 -0.2943241E+02 -0.8501272E+02  0.2590194E+02 -0.6806679E+02  0.4935774E+06  0.6709533E+06  0.6215820E+01 -0.1603856E+02
  0.4145863E+01  0.8054855E+05  0.1283609E+06 -0.2227732E+01 -0.6770243E+01 -0.2160144E+02 -0.2283702E+02  0.5660819E+01  0.3140495E+02  0.5182295E+06  0.4540965E+06  0.7471468E+01 -0.1466398E+02
  0.4835172E+01  0.8629200E+05  0.8996070E+05 -0.1184454E+01 -0.1222168E+02 -0.2693383E+02  0.2082665E+02  0.1328801E+01  0.4767447E+02  0.5477086E+06  0.3005724E+06  0.7980833E+01 -0.1232363E+02
  0.5524483E+01  0.9158733E+05  0.6287496E+05 -0.5311494E+01 -0.1141518E+02 -0.1865103E+02 -0.2284875E+02  0.1490875E+02  0.5329630E+02  0.5720632E+06  0.1985464E+06  0.8046272E+01 -0.1000782E+02
  0.6213793E+01  0.9293245E+05  0.4472031E+04  0.2862413E+02  0.2430997E+02 -0.3084466E+02  0.5257174E+03 -0.3112868E+03 -0.4440826E+03  0.5812132E+06 -0.5502303E+05  0.7685549E+01 -0.2574491E+02
  0.6903103E+01  0.9946814E+05  0.3353427E+05  0.1204637E+01 -0.2418940E+02 -0.2472213E+02 -0.1103812E+02 -0.6555120E+01  0.7424772E+02  0.6055809E+06  0.9860957E+05  0.7788023E+01 -0.4169248E+01
  0.7592414E+01  0.1032807E+06  0.2877013E+05  0.2361548E+02 -0.2723328E+03 -0.1883017E+02 -0.7599871E+02 -0.8809515E+02  0.9303923E+03  0.6203540E+06  0.9026634E+05  0.8344012E+01 -0.1987093E+01
  0.8281725E+01  0.1038277E+06  0.1399260E+05 -0.1000772E+01 -0.4955960E+02 -0.2294093E+02 -0.4286291E+02 -0.2177270E+01  0.1189169E+03  0.6234146E+06  0.3315030E+05  0.7074754E+01 -0.8162066E+01
  0.8971035E+01  0.1055686E+06  0.1113740E+05  0.1009962E+01 -0.5612605E+02 -0.2077049E+02 -0.7816080E+02 -0.6864937E+01  0.1449899E+03  0.6300521E+06  0.2652426E+05  0.7200181E+01 -0.7821797E+01
  0.9660344E+01  0.1069225E+06  0.5054257E+04  0.3941986E+01 -0.2671806E+02 -0.1832904E+02 -0.9900596E+02 -0.1276943E+02 -0.1526532E+01  0.6353433E+06  0.7516583E+04  0.7460186E+01 -0.1767586E+02
  0.1034966E+02  0.1088926E+06  0.1073809E+05  0.6070024E+01 -0.3160362E+03 -0.6214259E+01  0.1269527E+03 -0.1523355E+02  0.1136038E+04  0.6421701E+06  0.3326591E+05  0.1058203E+02  0.2055448E+02
  0.1103897E+02  0.1088765E+06  0.5808822E+04  0.1958421E+02  0.1609981E+02 -0.3995140E+02 -0.2375921E+03 -0.6039411E+02 -0.4070491E+02  0.6424805E+06  0.1570276E+05  0.9110260E+01  0.4727829E+02
  0.1172828E+02  0.1106662E+06  0.2242913E+04 -0.2395934E+02  0.1179121E+02 -0.1571263E+02 -0.5180284E+03  0.8089673E+02  0.1098324E+03  0.6485354E+06  0.8526904E+04  0.6313380E+01  0.1401335E+02
  0.1241759E+02  0.1102487E+06  0.1361145E+04  0.1075444E+02  0.9895216E+02 -0.5696484E+02 -0.1522462E+03 -0.3443021E+02 -0.3651452E+03  0.6474972E+06  0.1403523E+04  0.5946337E+01  0.1618332E+02
  0.1310690E+02  0.1107721E+06  0.2587629E+04  0.9365766E+01  0.1625082E+02 -0.7502538E+02  0.3860851E+03 -0.3247266E+02 -0.8148225E+02  0.6493709E+06  0.6147616E+04  0.5722504E+01  0.6715100E+01
  0.1379621E+02  0.1112036E+06  0.2000910E+04  0.5928986E+01 -0.4759042E+02 -0.5334628E+02 -0.5112387E+03 -0.2010534E+02  0.1582969E+03  0.6509776E+06  0.4539792E+04  0.6063097E+01  0.1985732E+01
  0.1448552E+02  0.1115881E+06 -0.2619175E+03  0.1045819E+02  0.9686177E+01 -0.1053608E+02  0.8636967E+02 -0.3405079E+02 -0.5528387E+02  0.6524291E+06 -0.2370622E+04  0.6484400E+01  0.4508483E+01
  0.1517483E+02  0.1122041E+06  0.1026833E+04 -0.1016642E+01 -0.1356894E+03 -0.8721592E+01  0.3110784E+02  0.1117868E+02  0.5358616E+03  0.6545084E+06  0.3575447E+04  0.7617421E+01  0.6885707E+01
  0.1586414E+02  0.1121310E+06  0.1928438E+04 -0.4454041E+00 -0.1549722E+03 -0.3497937E+02  0.5041030E+03 -0.1216041E+02  0.5936364E+03  0.6543766E+06  0.4421643E+04  0.3767637E+01 -0.6564820E+01
  0.1655345E+02  0.1125755E+06  0.1492839E+04  0.9148548E+01 -0.8234026E+02 -0.3911063E+02  0.1954500E+03 -0.3680018E+02  0.2881706E+03  0.6559176E+06  0.4763377E+04  0.6251437E+01  0.1879132E+01
  0.1724276E+02  0.1126738E+06 -0.1226837E+04  0.1251955E+02  0.7278086E+02 -0.4637568E+02 -0.2323086E+03 -0.4606951E+02 -0.2314909E+03  0.6563439E+06 -0.4107423E+04  0.6331999E+01  0.2449086E+01
  0.1793207E+02  0.1127254E+06 -0.6551341E+03 -0.7202806E+01  0.2321807E+02 -0.1054269E+02 -0.5568351E+02  0.1975485E+02 -0.3743386E+01  0.6565408E+06 -0.2690477E+04  0.5742846E+01  0.1039662E+02
  0.1862138E+02  0.1128895E+06 -0.7360811E+03 -0.7411316E+01  0.1588949E+03 -0.1050760E+02 -0.2328443E+03  0.2098312E+02 -0.4766044E+03  0.6571219E+06 -0.2258844E+04  0.5686371E+01  0.7167141E+01
  0.1931069E+02  0.1130181E+06 -0.7532013E+01 -0.3570529E+01 -0.7127087E+02 -0.1205795E+02  0.3863771E+02  0.9341923E+01  0.2320874E+03  0.6575239E+06  0.9302241E+03  0.6192811E+01 -0.6962418E+01
  0.2000000E+02  0.1130987E+06  0.2878122E+03  0.5453533E+01 -0.7689215E+01 -0.3629321E+02 -0.6549921E+01 -0.2127093E+02  0.1969990E+02  0.6578058E+06  0.9850026E+03  0.5905051E+01  0.1986520E+01
Zone t="Motion of body    1 in DoF   6",I=    30,F=POINT