VARIABLES="w (rad/s)"  
"abs(F   1   1)" "angle(F   1   1)"
"abs(F   1   2)" "angle(F   1   2)"
"abs(F   1   3)" "angle(F   1   3)"
"abs(F   1   4)" "angle(F   1   4)"
"abs(F   1   5)" "angle(F   1   5)"
"abs(F   1   6)" "angle(F   1   6)"
Zone t="Diffraction force - beta =   0.000 deg",I=    35,F=POINT
  0.6280000E-01  0.5438721E+05 -0.1570794E+01  0.8484591E+01  0.1570235E+01  0.8733997E+03 -0.3139963E+01  0.3147653E+03  0.1570273E+01  0.1040069E+07 -0.1570794E+01  0.5581924E+02  0.3141266E+01
  0.1810118E+00  0.2226324E+06 -0.1570594E+01  0.6395278E+02  0.1570858E+01  0.5694192E+04 -0.3139807E+01  0.2903517E+03  0.1568803E+01  0.5008334E+07 -0.1570598E+01  0.3707758E+03  0.3135286E+01
  0.2992235E+00  0.4347787E+06 -0.1568525E+01  0.2430536E+03  0.1576881E+01  0.8337584E+04  0.3138276E+01  0.4511031E+04 -0.1567102E+01  0.1260835E+08 -0.1568550E+01  0.5613510E+03  0.3120173E+01
  0.4174353E+00  0.5509516E+06 -0.1562185E+01  0.5508160E+03  0.1594558E+01  0.6735376E+04  0.3113738E+01  0.1909621E+05 -0.1551414E+01  0.2091944E+08 -0.1562224E+01  0.4138242E+03  0.3019564E+01
  0.5356470E+00  0.5721998E+06 -0.1549759E+01  0.9357991E+03  0.1627891E+01  0.3800259E+04  0.2937406E+01  0.4439047E+05 -0.1519998E+01  0.2734037E+08 -0.1549792E+01  0.1989362E+03  0.1656086E+01
  0.6538588E+00  0.5487774E+06 -0.1529126E+01  0.1387790E+04  0.1679739E+01  0.2302068E+04  0.2175034E+01  0.7915037E+05 -0.1469580E+01  0.3101379E+08 -0.1529180E+01  0.7192817E+03  0.8178511E+00
  0.7720706E+00  0.5144297E+06 -0.1497683E+01  0.1904207E+04  0.1754129E+01  0.3361094E+04  0.1458619E+01  0.1215793E+06 -0.1396304E+01  0.3251848E+08 -0.1497820E+01  0.1490695E+04  0.7887697E+00
  0.8902823E+00  0.4810640E+06 -0.1452378E+01  0.2503469E+04  0.1855754E+01  0.4932011E+04  0.1264207E+01  0.1718554E+06 -0.1295749E+01  0.3274085E+08 -0.1452634E+01  0.2399975E+04  0.8379460E+00
  0.1008494E+01  0.4502501E+06 -0.1390156E+01  0.3176740E+04  0.1989563E+01  0.5959194E+04  0.1218487E+01  0.2289535E+06 -0.1162996E+01  0.3222997E+08 -0.1390515E+01  0.3403712E+04  0.9018952E+00
  0.1126706E+01  0.4200188E+06 -0.1309189E+01  0.3877344E+04  0.2157232E+01  0.6206703E+04  0.1215611E+01  0.2890418E+06 -0.9962344E+00  0.3116256E+08 -0.1309593E+01  0.4462754E+04  0.9677918E+00
  0.1244918E+01  0.3871829E+06 -0.1210429E+01  0.4499803E+04  0.2354299E+01  0.5761040E+04  0.1224241E+01  0.3435224E+06 -0.7997918E+00  0.2948225E+08 -0.1210786E+01  0.5559990E+04  0.1031599E+01
  0.1363129E+01  0.3490302E+06 -0.1098626E+01  0.4907263E+04  0.2567569E+01  0.4860972E+04  0.1230519E+01  0.3810012E+06 -0.5869992E+00  0.2708675E+08 -0.1098833E+01  0.6681260E+04  0.1092435E+01
  0.1481341E+01  0.3049255E+06 -0.9817104E+00  0.4990738E+04  0.2777062E+01  0.3770234E+04  0.1224064E+01  0.3920959E+06 -0.3777744E+00  0.2399557E+08 -0.9816648E+00  0.7796175E+04  0.1150088E+01
  0.1599553E+01  0.2564088E+06 -0.8683482E+00  0.4731109E+04  0.2962569E+01  0.2700459E+04  0.1191013E+01  0.3748458E+06 -0.1926956E+00  0.2038589E+08 -0.8679656E+00  0.8847808E+04  0.1205586E+01
  0.1717765E+01  0.2064632E+06 -0.7655017E+00  0.4215545E+04  0.3103628E+01  0.1779462E+04  0.1102240E+01  0.3362673E+06 -0.5249649E-01  0.1654229E+08 -0.7646682E+00  0.9820203E+04  0.1259203E+01
  0.1835976E+01  0.1584197E+06 -0.6763076E+00  0.3613215E+04 -0.3098694E+01  0.1077452E+04  0.8914624E+00  0.2897797E+06  0.2696070E-01  0.1276725E+08 -0.6750093E+00  0.1065730E+05  0.1312050E+01
  0.1954188E+01  0.1142081E+06 -0.6017755E+00  0.3034019E+04 -0.3082501E+01  0.6613000E+03  0.3972061E+00  0.2447025E+06  0.4139382E-01  0.9247059E+07 -0.5999028E+00  0.1129425E+05  0.1363425E+01
  0.2072400E+01  0.7518702E+05 -0.5401942E+00  0.2588192E+04 -0.3132519E+01  0.6055096E+03 -0.3364454E+00  0.2100495E+06 -0.1004863E-01  0.6110615E+07 -0.5377609E+00  0.1174776E+05  0.1418707E+01
  0.2190612E+01  0.4173346E+05 -0.4908184E+00  0.2293138E+04  0.3059529E+01  0.8000434E+03 -0.7893001E+00  0.1873710E+06 -0.1012036E+00  0.3402790E+07 -0.4877221E+00  0.1197472E+05  0.1476148E+01
  0.2308823E+01  0.1396916E+05 -0.4567572E+00  0.2154686E+04  0.2960701E+01  0.1089102E+04 -0.1026163E+01  0.1770528E+06 -0.1983048E+00  0.1142292E+07 -0.4531473E+00  0.1204567E+05  0.1546536E+01
  0.2427035E+01  0.8303605E+04  0.2764059E+01  0.2107251E+04  0.2885634E+01  0.1481188E+04 -0.1131012E+01  0.1738245E+06 -0.2707956E+00  0.6808494E+06  0.2768945E+01  0.1207445E+05  0.1642213E+01
  0.2545247E+01  0.2535011E+05  0.2782601E+01  0.2114353E+04  0.2852190E+01  0.2302251E+04 -0.1139793E+01  0.1747270E+06 -0.3023417E+00  0.2084171E+07  0.2787936E+01  0.1241773E+05  0.1821970E+01
  0.2663459E+01  0.3752625E+05  0.2813976E+01  0.2137268E+04  0.2854696E+01  0.4516299E+04 -0.6459680E+00  0.1766842E+06 -0.2984409E+00  0.3093774E+07  0.2820061E+01  0.1299382E+05  0.2465902E+01
  0.2781670E+01  0.4525066E+05  0.2849436E+01  0.2164631E+04  0.2889333E+01  0.2676427E+04  0.6234336E+00  0.1788115E+06 -0.2633851E+00  0.3741630E+07  0.2856233E+01  0.8630751E+03  0.3128678E+01
  0.2899882E+01  0.4891236E+05  0.2891122E+01  0.2198067E+04  0.2950119E+01  0.1039453E+04  0.8004018E+00  0.1812567E+06 -0.2028382E+00  0.4058230E+07  0.2898579E+01  0.2669239E+04  0.1374033E+01
  0.3018094E+01  0.4888225E+05  0.2942683E+01  0.2259452E+04  0.3024623E+01  0.4849289E+03  0.7103385E+00  0.1858336E+06 -0.1285537E+00  0.4072121E+07  0.2950901E+01  0.2717902E+04  0.1463629E+01
  0.3136306E+01  0.4506553E+05  0.3018355E+01  0.2410721E+04  0.3120185E+01  0.2371660E+03  0.5559934E+00  0.1975230E+06 -0.3358263E-01  0.3776384E+07  0.3027459E+01  0.2095555E+04  0.1524823E+01
  0.3254517E+01  0.3587713E+05 -0.3128049E+01  0.2862339E+04 -0.3007571E+01  0.1042609E+03  0.3520156E+00  0.2334513E+06  0.1214425E+00  0.3043388E+07 -0.3116453E+01  0.1279568E+04  0.1561977E+01
  0.3372729E+01  0.4971527E+04  0.3084098E+01  0.4413558E+04 -0.2361702E+01  0.2698460E+02  0.1286723E+00  0.3585401E+06  0.7685222E+00  0.5130922E+06 -0.2981046E+01  0.4566321E+03  0.1522505E+01
  0.3490941E+01  0.4784386E+05  0.2376344E+01  0.1346396E+04 -0.1355682E+01  0.1772142E+02  0.2992115E+01  0.1060824E+06  0.1764402E+01  0.3901234E+07  0.2377865E+01  0.3291615E+03 -0.1246594E+01
  0.3609153E+01  0.3530239E+05  0.2751089E+01  0.5102033E+03 -0.1692691E+01  0.4486979E+02  0.2728944E+01  0.4083107E+05  0.1397554E+01  0.2919009E+07  0.2753396E+01  0.1014239E+04 -0.1335857E+01
  0.3727364E+01  0.2457679E+05  0.2881823E+01  0.3429395E+03 -0.2083558E+01  0.6227478E+02  0.2474464E+01  0.2796655E+05  0.1014422E+01  0.2043123E+07  0.2883737E+01  0.1614230E+04 -0.1319609E+01
  0.3845576E+01  0.1489847E+05  0.2960540E+01  0.2317912E+03 -0.2109105E+01  0.7202375E+02  0.2217647E+01  0.1880502E+05  0.1001676E+01  0.1242118E+07  0.2961592E+01  0.2177742E+04 -0.1287214E+01
  0.3963788E+01  0.5925554E+04  0.3011587E+01  0.1267137E+03 -0.1496996E+01  0.9266814E+02  0.2020872E+01  0.1011223E+05  0.1648557E+01  0.4948244E+06  0.3011754E+01  0.2922319E+04 -0.1221010E+01
  0.4082000E+01  0.2247466E+04  0.8119184E-02  0.1906152E+03 -0.3759156E+00  0.2196858E+03  0.2465115E+01  0.1591492E+05  0.2779398E+01  0.1878156E+06  0.5971490E-02  0.5808082E+04 -0.6612128E+00
