VARIABLES="w (rad/s)"  
"abs(F   1   1)" "angle(F   1   1)"
"abs(F   1   2)" "angle(F   1   2)"
"abs(F   1   3)" "angle(F   1   3)"
"abs(F   1   4)" "angle(F   1   4)"
"abs(F   1   5)" "angle(F   1   5)"
"abs(F   1   6)" "angle(F   1   6)"
Zone t="Excitation force - beta =   0.000 deg",I=    35,F=POINT
  0.6280000E-01  0.1065240E+06 -0.1570795E+01  0.7517607E+01  0.1734182E+01  0.2870132E+06 -0.4960254E-05  0.3152927E+04  0.1563720E+01  0.1979957E+07 -0.1570794E+01  0.3192086E+04  0.3141587E+01
  0.1810118E+00  0.4350335E+06 -0.1570692E+01  0.2614164E+02  0.1469437E+01  0.9986702E+05 -0.1017895E-03  0.1252451E+05  0.1567644E+01  0.9586600E+07 -0.1570693E+01  0.2302426E+05  0.3141491E+01
  0.2992235E+00  0.8457253E+06 -0.1569629E+01  0.4331097E+02  0.1633913E+01  0.1021645E+06  0.3141322E+01  0.2297430E+05  0.1566842E+01  0.2425383E+08 -0.1569629E+01  0.4435032E+05  0.3141321E+01
  0.4174353E+00  0.1065378E+07 -0.1566343E+01  0.6875697E+02  0.1754013E+01  0.2041641E+06  0.3140673E+01  0.2588110E+05  0.1559321E+01  0.4027696E+08 -0.1566344E+01  0.5476863E+05  0.3140673E+01
  0.5356470E+00  0.1099209E+07 -0.1559846E+01  0.1393832E+03  0.1962767E+01  0.2140797E+06  0.3137994E+01  0.2098944E+05  0.1462154E+01  0.5246806E+08 -0.1559852E+01  0.5502096E+05  0.3137990E+01
  0.6538588E+00  0.1046252E+07 -0.1548944E+01  0.3024044E+03  0.2092759E+01  0.1828761E+06  0.3131233E+01  0.1206946E+05  0.8495698E+00  0.5911936E+08 -0.1548969E+01  0.5063567E+05  0.3131228E+01
  0.7720706E+00  0.9720875E+06 -0.1532129E+01  0.5756844E+03  0.2218298E+01  0.1428118E+06  0.3118203E+01  0.2265142E+05 -0.3705069E+00  0.6143529E+08 -0.1532193E+01  0.4520981E+05  0.3118196E+01
  0.8902823E+00  0.9000746E+06 -0.1507611E+01  0.9951442E+03  0.2356519E+01  0.1056181E+06  0.3097059E+01  0.5536400E+05 -0.5681112E+00  0.6123610E+08 -0.1507724E+01  0.4008522E+05  0.3097077E+01
  0.1008494E+01  0.8345469E+06 -0.1473715E+01  0.1586058E+04  0.2522509E+01  0.7462787E+05  0.3066575E+01  0.1037560E+06 -0.5051032E+00  0.5971887E+08 -0.1473874E+01  0.3563526E+05  0.3066591E+01
  0.1126706E+01  0.7735563E+06 -0.1429900E+01  0.2351549E+04  0.2720129E+01  0.5048542E+05  0.3026069E+01  0.1673960E+06 -0.3527551E+00  0.5738545E+08 -0.1430096E+01  0.3191675E+05  0.3026171E+01
  0.1244918E+01  0.7130034E+06 -0.1378124E+01  0.3237490E+04  0.2946038E+01  0.3271627E+05  0.2975204E+01  0.2421156E+06 -0.1503911E+00  0.5430225E+08 -0.1378345E+01  0.2884913E+05  0.2975446E+01
  0.1363129E+01  0.6492160E+06 -0.1323772E+01  0.4125031E+04 -0.3095895E+01  0.2029661E+05  0.2913865E+01  0.3181666E+06  0.7705551E-01  0.5040972E+08 -0.1324008E+01  0.2630210E+05  0.2914130E+01
  0.1481341E+01  0.5812054E+06 -0.1275009E+01  0.4857833E+04 -0.2857278E+01  0.1201952E+05  0.2842129E+01  0.3823414E+06  0.3071388E+00  0.4577647E+08 -0.1275252E+01  0.2414302E+05  0.2842390E+01
  0.1599553E+01  0.5108909E+06 -0.1240564E+01  0.5316997E+04 -0.2637456E+01  0.6739187E+04  0.2760260E+01  0.4242417E+06  0.5212123E+00  0.4066532E+08 -0.1240803E+01  0.2226570E+05  0.2761328E+01
  0.1717765E+01  0.4419382E+06 -0.1227226E+01  0.5465744E+04 -0.2450751E+01  0.3496116E+04  0.2670202E+01  0.4403662E+06  0.7035298E+00  0.3545680E+08 -0.1227422E+01  0.2058506E+05  0.2670250E+01
  0.1835976E+01  0.3779828E+06 -0.1237810E+01  0.5368794E+04 -0.2308216E+01  0.1567838E+04  0.2577496E+01  0.4353881E+06  0.8428647E+00  0.3050940E+08 -0.1237987E+01  0.1905592E+05  0.2570386E+01
  0.1954188E+01  0.3208584E+06 -0.1272997E+01  0.5099090E+04 -0.2206788E+01  0.4346103E+03  0.2512243E+01  0.4154693E+06  0.9416250E+00  0.2602220E+08 -0.1273114E+01  0.1762406E+05  0.2463751E+01
  0.2072400E+01  0.2712708E+06 -0.1330799E+01  0.4734168E+04 -0.2149194E+01  0.2455945E+03 -0.9509013E+00  0.3869669E+06  0.9970523E+00  0.2208638E+08 -0.1330882E+01  0.1633718E+05  0.2350986E+01
  0.2190612E+01  0.2288746E+06 -0.1409279E+01  0.4327873E+04 -0.2127124E+01  0.6885078E+03 -0.9699460E+00  0.3545474E+06  0.1017171E+01  0.1869635E+08 -0.1409313E+01  0.1514519E+05  0.2235462E+01
  0.2308823E+01  0.1929365E+06 -0.1505769E+01  0.3922166E+04 -0.2141709E+01  0.1058430E+04 -0.1076078E+01  0.3217481E+06  0.1000954E+01  0.1580737E+08 -0.1505780E+01  0.1415670E+05  0.2124408E+01
  0.2427035E+01  0.1626000E+06 -0.1618285E+01  0.3532171E+04 -0.2186034E+01  0.1474077E+04 -0.1141380E+01  0.2900169E+06  0.9551082E+00  0.1335863E+08 -0.1618283E+01  0.1345765E+05  0.2033314E+01
  0.2545247E+01  0.1370330E+06 -0.1744874E+01  0.3187780E+04 -0.2259692E+01  0.2301586E+04 -0.1140423E+01  0.2618014E+06  0.8800258E+00  0.1128828E+08 -0.1744879E+01  0.1338297E+05  0.2024658E+01
  0.2663459E+01  0.1154468E+06 -0.1883637E+01  0.2890596E+04 -0.2359111E+01  0.4518043E+04 -0.6456771E+00  0.2374022E+06  0.7793892E+00  0.9536059E+07 -0.1883679E+01  0.1356630E+05  0.2499286E+01
  0.2781670E+01  0.9720662E+05 -0.2032846E+01  0.2658232E+04 -0.2479229E+01  0.2678228E+04  0.6229501E+00  0.2182166E+06  0.6580862E+00  0.8052418E+07 -0.2032940E+01  0.1085644E+03  0.1028438E+00
  0.2899882E+01  0.8170636E+05 -0.2189471E+01  0.2502338E+04 -0.2610694E+01  0.1040468E+04  0.7993971E+00  0.2052192E+06  0.5253932E+00  0.6789792E+07 -0.2189689E+01  0.3825879E+04  0.7535306E+00
  0.3018094E+01  0.6825687E+05 -0.2349041E+01  0.2431000E+04 -0.2746814E+01  0.4855377E+03  0.7092606E+00  0.1991047E+06  0.3880603E+00  0.5693653E+07 -0.2349334E+01  0.4381205E+04  0.6646654E+00
  0.3136306E+01  0.5598243E+05 -0.2496242E+01  0.2506303E+04 -0.2863728E+01  0.2375124E+03  0.5550873E+00  0.2047986E+06  0.2693998E+00  0.4694378E+07 -0.2496783E+01  0.4295730E+04  0.5090035E+00
  0.3254517E+01  0.4228930E+05 -0.2583555E+01  0.2924062E+04 -0.2896493E+01  0.1044598E+03  0.3513164E+00  0.2382467E+06  0.2343931E+00  0.3584549E+07 -0.2584434E+01  0.4017782E+04  0.3241085E+00
  0.3372729E+01  0.8115806E+04 -0.2228828E+01  0.4398238E+04 -0.2365230E+01  0.2711468E+02  0.1280517E+00  0.3572763E+06  0.7648566E+00  0.8157918E+06 -0.2240637E+01  0.3691150E+04  0.1238823E+00
  0.3490941E+01  0.5224242E+05  0.2292265E+01  0.1057430E+04 -0.1295542E+01  0.1761520E+02  0.2991207E+01  0.8200570E+05  0.1822326E+01  0.4267111E+07  0.2292059E+01  0.3371603E+04 -0.9267431E-01
  0.3609153E+01  0.4410334E+05  0.2404145E+01  0.6278792E+02 -0.2986846E+01  0.4477073E+02  0.2727975E+01  0.7104184E+04 -0.1362345E+00  0.3651256E+07  0.2403820E+01  0.3100190E+04 -0.3237946E+00
  0.3727364E+01  0.3813562E+05  0.2243158E+01  0.3627744E+03  0.2053033E+01  0.6218260E+02  0.2473296E+01  0.3140405E+05 -0.1081161E+01  0.3172725E+07  0.2242952E+01  0.2917903E+04 -0.5655197E+00
  0.3845576E+01  0.3393263E+05  0.2017376E+01  0.4896391E+03  0.1815946E+01  0.7194689E+02  0.2216231E+01  0.4139620E+05 -0.1323482E+01  0.2830269E+07  0.2017260E+01  0.2895040E+04 -0.8069598E+00
  0.3963788E+01  0.3078541E+05  0.1762829E+01  0.5406515E+03  0.1553514E+01  0.9260937E+02  0.2019557E+01  0.4537627E+05 -0.1588109E+01  0.2571336E+07  0.1762792E+01  0.3255468E+04 -0.1003408E+01
  0.4082000E+01  0.2838842E+05  0.1491547E+01  0.5681830E+03  0.1253440E+01  0.2195781E+03  0.2464721E+01  0.4751228E+05 -0.1889391E+01  0.2372487E+07  0.1491550E+01  0.5942296E+04 -0.6437572E+00
