VARIABLES="w (rad/s)"
"abs(F   1   1)" "angle(F   1   1)"
"abs(F   1   2)" "angle(F   1   2)"
"abs(F   1   3)" "angle(F   1   3)"
"abs(F   1   4)" "angle(F   1   4)"
"abs(F   1   5)" "angle(F   1   5)"
"abs(F   1   6)" "angle(F   1   6)"
Zone t="FKforce - beta =   0.000",I=    35,F=POINT
  0.6280000E-01  0.5213680E+05 -0.1570796E+01  0.1626545E+01 -0.2426015E+01  0.2878866E+06 -0.1192562E-09  0.2838169E+04  0.1562993E+01  0.9398878E+06 -0.1570794E+01  0.3136267E+04  0.3141593E+01
  0.1810118E+00  0.2124011E+06 -0.1570795E+01  0.3803767E+02 -0.1501096E+01  0.1055612E+06 -0.1879140E-08  0.1223416E+05  0.1567616E+01  0.4578266E+07 -0.1570796E+01  0.2265349E+05 -0.3141593E+01
  0.2992235E+00  0.4109472E+06 -0.1570796E+01  0.1998283E+03 -0.1577066E+01  0.9382695E+05 -0.3141593E+01  0.2748522E+05  0.1568097E+01  0.1164549E+08 -0.1570796E+01  0.4378910E+05 -0.3141593E+01
  0.4174353E+00  0.5144363E+06 -0.1570796E+01  0.4830546E+03 -0.1569637E+01  0.1974312E+06 -0.3141593E+01  0.4497207E+05  0.1572422E+01  0.1935788E+08 -0.1570796E+01  0.5435786E+05  0.3141593E+01
  0.5356470E+00  0.5270703E+06 -0.1570796E+01  0.8054622E+03 -0.1570605E+01  0.2103570E+06  0.3141593E+01  0.6519890E+05  0.1570461E+01  0.2513058E+08 -0.1570796E+01  0.5500366E+05 -0.3141593E+01
  0.6538588E+00  0.4977009E+06 -0.1570796E+01  0.1117426E+04 -0.1570691E+01  0.1815584E+06 -0.3141593E+01  0.8780941E+05  0.1571116E+01  0.2811833E+08 -0.1570796E+01  0.5112479E+05  0.3141593E+01
  0.7720706E+00  0.4583056E+06 -0.1570796E+01  0.1413133E+04 -0.1570867E+01  0.1431490E+06 -0.3141593E+01  0.1115313E+06  0.1570732E+01  0.2895759E+08 -0.1570796E+01  0.4624796E+05 -0.3141593E+01
  0.8902823E+00  0.4205835E+06 -0.1570796E+01  0.1699069E+04 -0.1570876E+01  0.1070019E+06  0.3141593E+01  0.1356077E+06  0.1570850E+01  0.2860179E+08 -0.1570796E+01  0.4165107E+05  0.3141593E+01
  0.1008494E+01  0.3876933E+06 -0.1570796E+01  0.1981869E+04 -0.1570762E+01  0.7647430E+05  0.3141593E+01  0.1599709E+06  0.1570806E+01  0.2773096E+08 -0.1570796E+01  0.3764580E+05  0.3141593E+01
  0.1126706E+01  0.3601629E+06 -0.1570796E+01  0.2267503E+04 -0.1570824E+01  0.5230738E+05 -0.3141593E+01  0.1847978E+06  0.1570776E+01  0.2671284E+08 -0.1570796E+01  0.3423530E+05 -0.3141593E+01
  0.1244918E+01  0.3374968E+06 -0.1570796E+01  0.2558788E+04 -0.1570789E+01  0.3422123E+05  0.3141593E+01  0.2101031E+06  0.1570810E+01  0.2570751E+08 -0.1570796E+01  0.3130662E+05 -0.3141593E+01
  0.1363129E+01  0.3186682E+06 -0.1570796E+01  0.2853161E+04 -0.1570791E+01  0.2139493E+05  0.3141593E+01  0.2355155E+06  0.1570803E+01  0.2475685E+08 -0.1570796E+01  0.2870016E+05  0.3141593E+01
  0.1481341E+01  0.3024354E+06 -0.1570796E+01  0.3141875E+04 -0.1570799E+01  0.1276581E+05  0.3141593E+01  0.2602199E+06  0.1570795E+01  0.2384129E+08 -0.1570796E+01  0.2625440E+05 -0.3141593E+01
  0.1599553E+01  0.2875788E+06 -0.1570796E+01  0.3410846E+04 -0.1570803E+01  0.7256221E+04 -0.3141593E+01  0.2830284E+06  0.1570792E+01  0.2291646E+08 -0.1570796E+01  0.2383514E+05 -0.3141593E+01
  0.1717765E+01  0.2730523E+06 -0.1570796E+01  0.3642699E+04 -0.1570795E+01  0.3918425E+04 -0.3141593E+01  0.3025236E+06  0.1570786E+01  0.2193478E+08 -0.1570796E+01  0.2135109E+05  0.3141593E+01
  0.1835976E+01  0.2580627E+06 -0.1570796E+01  0.3819059E+04 -0.1570791E+01  0.2001872E+04 -0.3141593E+01  0.3172282E+06  0.1570793E+01  0.2085698E+08 -0.1570796E+01  0.1875765E+05 -0.3141593E+01
  0.1954188E+01  0.2420816E+06 -0.1570796E+01  0.3922950E+04 -0.1570799E+01  0.9611583E+03 -0.3141593E+01  0.3257871E+06  0.1570795E+01  0.1965718E+08 -0.1570796E+01  0.1605322E+05 -0.3141593E+01
  0.2072400E+01  0.2248269E+06 -0.1570796E+01  0.3940625E+04 -0.1570797E+01  0.4288831E+03 -0.3141593E+01  0.3271144E+06  0.1570799E+01  0.1832384E+08 -0.1570796E+01  0.1327163E+05  0.3141593E+01
  0.2190612E+01  0.2062247E+06 -0.1570796E+01  0.3863203E+04 -0.1570797E+01  0.1742606E+03  0.3141593E+01  0.3205167E+06  0.1570797E+01  0.1685851E+08 -0.1570796E+01  0.1047319E+05  0.3141593E+01
  0.2308823E+01  0.1863678E+06 -0.1570796E+01  0.3687785E+04 -0.1570799E+01  0.6174355E+02 -0.3141593E+01  0.3057881E+06  0.1570796E+01  0.1527388E+08 -0.1570796E+01  0.7735277E+04  0.3141593E+01
  0.2427035E+01  0.1654776E+06 -0.1570796E+01  0.3417998E+04 -0.1570797E+01  0.1689004E+02  0.3141593E+01  0.2832606E+06  0.1570794E+01  0.1359146E+08 -0.1570796E+01  0.5143265E+04 -0.3141593E+01
  0.2545247E+01  0.1438683E+06 -0.1570796E+01  0.3064195E+04 -0.1570796E+01  0.1594179E+01 -0.3141593E+01  0.2538109E+06  0.1570796E+01  0.1183948E+08 -0.1570796E+01  0.2781315E+04  0.3141593E+01
  0.2663459E+01  0.1219189E+06 -0.1570796E+01  0.2642788E+04 -0.1570797E+01  0.2183896E+01 -0.4008630E-07  0.2188075E+06  0.1570795E+01  0.1005078E+08 -0.1570796E+01  0.7239954E+03 -0.3141592E+01
  0.2781670E+01  0.1000466E+06 -0.1570796E+01  0.2175043E+04 -0.1570797E+01  0.2218012E+01  0.5794491E-07  0.1800158E+06  0.1570796E+01  0.8260988E+07 -0.1570796E+01  0.9709939E+03 -0.2278618E-06
  0.2899882E+01  0.7868535E+05 -0.1570796E+01  0.1685259E+04 -0.1570796E+01  0.1456648E+01 -0.1534465E-07  0.1394425E+06  0.1570797E+01  0.6506959E+07 -0.1570796E+01  0.2268303E+04  0.1009044E-06
  0.3018094E+01  0.5826806E+05 -0.1570796E+01  0.1198656E+04 -0.1570796E+01  0.8025717E+00  0.1740634E-08  0.9916381E+05  0.1570796E+01  0.4825368E+07 -0.1570796E+01  0.3157835E+04 -0.6946059E-07
  0.3136306E+01  0.3921194E+05 -0.1570796E+01  0.7390908E+03 -0.1570798E+01  0.4077968E+00  0.4853055E-08  0.6113984E+05  0.1570796E+01  0.3251614E+07 -0.1570796E+01  0.3654857E+04 -0.3757442E-07
  0.3254517E+01  0.2190725E+05 -0.1570796E+01  0.3270646E+03 -0.1570797E+01  0.2118191E+00 -0.6595173E-08  0.2705218E+05  0.1570796E+01  0.1818923E+07 -0.1570796E+01  0.3797312E+04  0.1004578E-07
  0.3372729E+01  0.6706885E+04 -0.1570796E+01  0.2182430E+02  0.1570801E+01  0.1311552E+00  0.1420184E-07  0.1821580E+04 -0.1570793E+01  0.5574938E+06 -0.1570796E+01  0.3640820E+04 -0.3562376E-07
  0.3490941E+01  0.6083300E+04  0.1570796E+01  0.2977396E+03  0.1570798E+01  0.1074282E+00 -0.8669256E-08  0.2467520E+05 -0.1570796E+01  0.5063172E+06  0.1570796E+01  0.3252279E+04  0.1407517E-07
  0.3609153E+01  0.1621711E+05  0.1570796E+01  0.4967401E+03  0.1570797E+01  0.1081642E+00  0.1722054E-07  0.4118471E+05 -0.1570796E+01  0.1351083E+07  0.1570796E+01  0.2702990E+04 -0.5645153E-08
  0.3727364E+01  0.2352277E+05  0.1570796E+01  0.6202385E+03  0.1570796E+01  0.1173965E+00  0.0000000E+00  0.5146272E+05 -0.1570796E+01  0.1961585E+07  0.1570796E+01  0.2062392E+04  0.3699293E-07
  0.3845576E+01  0.2792214E+05  0.1570796E+01  0.6740100E+03  0.1570797E+01  0.1276567E+00  0.1459104E-07  0.5597754E+05 -0.1570797E+01  0.2330468E+07  0.1570796E+01  0.1393166E+04  0.5476300E-07
  0.3963788E+01  0.2945133E+05  0.1570796E+01  0.6669395E+03  0.1570796E+01  0.1352749E+00  0.1376934E-07  0.5545114E+05 -0.1570796E+01  0.2460021E+07  0.1570796E+01  0.7481200E+03 -0.8158472E-07
  0.4082000E+01  0.2828107E+05  0.1570796E+01  0.6097895E+03  0.1570796E+01  0.1381617E+00  0.0000000E+00  0.5076039E+05 -0.1570796E+01  0.2363920E+07  0.1570796E+01  0.1689070E+03  0.2258460E-06
