VARIABLES="w (rad/s)"  
"A   1   1" "B   1   1"
"A   1   2" "B   1   2"
"A   1   3" "B   1   3"
"A   1   4" "B   1   4"
"A   1   5" "B   1   5"
"A   1   6" "B   1   6"
Zone t="Motion of body    1 in DoF   1",I=    35,F=POINT
  0.6280000E-01  0.8365116E+07  0.1255480E+01 -0.1168969E+04  0.8829634E-03 -0.4998782E-01 -0.7941775E-03 -0.5258888E+05  0.3170003E-01  0.1563592E+09  0.2357926E+02 -0.1351852E+00  0.3377903E-03
  0.1810118E+00  0.8376707E+07  0.3028431E+03 -0.1200549E+04 -0.1522087E+00 -0.3308108E-01 -0.4094902E-02 -0.5084614E+05 -0.6277054E+01  0.1569001E+09  0.6673999E+04 -0.6019592E-02 -0.1094489E-02
  0.2992235E+00  0.8398925E+07  0.5229843E+04 -0.1276872E+04 -0.3980630E+01 -0.1171876E-01  0.1043718E-01 -0.4662776E+05 -0.3539127E+02  0.1581075E+09  0.1499829E+06 -0.6237793E-01  0.3330440E-03
  0.4174353E+00  0.8413112E+07  0.2254813E+05 -0.1396776E+04 -0.2676119E+02 -0.7116698E-01  0.2816031E-01 -0.3853725E+05  0.4107795E+03  0.1595414E+09  0.8522231E+06 -0.8209991E-01  0.9610020E-02
  0.5356470E+00  0.8407391E+07  0.5080727E+05 -0.1470454E+04 -0.9418384E+02 -0.8740234E-01  0.3802907E-01 -0.2989046E+05  0.3245807E+04  0.1602592E+09  0.2422232E+07 -0.1143646E+00  0.1153039E-01
  0.6538588E+00  0.8390253E+07  0.8400513E+05 -0.1622932E+04 -0.2397886E+03 -0.1396484E+00  0.1784972E-01 -0.1591354E+05  0.1161956E+05  0.1600427E+09  0.4732978E+07 -0.1284866E+00  0.1070293E-01
  0.7720706E+00  0.8368577E+07  0.1198939E+06 -0.1749172E+04 -0.5029803E+03 -0.1376343E+00  0.2114620E-01 -0.2969323E+04  0.2917977E+05  0.1590902E+09  0.7545054E+07 -0.2233887E-01  0.4506916E-02
  0.8902823E+00  0.8344440E+07  0.1582424E+06 -0.1819728E+04 -0.9323985E+03 -0.1306762E+00  0.2410119E-02  0.6254536E+04  0.6017425E+05  0.1576397E+09  0.1071673E+08  0.3067780E-01 -0.1893358E-02
  0.1008494E+01  0.8317251E+07  0.1985692E+06 -0.1752313E+04 -0.1566633E+04 -0.1099243E+00  0.3000470E-02  0.5137627E+04  0.1082143E+06  0.1557498E+09  0.1414974E+08 -0.1383286E+00 -0.6424657E-03
  0.1126706E+01  0.8286077E+07  0.2390717E+06 -0.1455467E+04 -0.2379194E+04 -0.1868286E+00 -0.6680817E-02 -0.1428409E+05  0.1720702E+06  0.1534019E+09  0.1767211E+08 -0.1157761E+00 -0.3133273E-02
  0.1244918E+01  0.8250639E+07  0.2757760E+06 -0.8601519E+03 -0.3209269E+04 -0.1528320E+00 -0.2272707E-02 -0.5810104E+05  0.2396090E+06  0.1506051E+09  0.2094079E+08 -0.1880341E+00 -0.2773407E-02
  0.1363129E+01  0.8212557E+07  0.3027926E+06 -0.3730062E+02 -0.3764047E+04 -0.8770752E-01 -0.1662929E-02 -0.1216601E+06  0.2872129E+06  0.1475120E+09  0.2345220E+08 -0.6570435E-01 -0.1674376E-02
  0.1481341E+01  0.8175868E+07  0.3149673E+06  0.8013338E+03 -0.3756711E+04 -0.1129151E+00  0.1331115E-02 -0.1883422E+06  0.2908829E+06  0.1444665E+09  0.2475465E+08 -0.4658508E-01 -0.3424426E-02
  0.1599553E+01  0.8144736E+07  0.3107620E+06  0.1416635E+04 -0.3160646E+04 -0.1319580E+00  0.6431928E-03 -0.2385581E+06  0.2468176E+06  0.1418310E+09  0.2469003E+08 -0.1156693E+00  0.1989190E-02
  0.1717765E+01  0.8121704E+07  0.2928612E+06  0.1692029E+04 -0.2200844E+04 -0.1251221E+00 -0.5753752E-03 -0.2620181E+06  0.1724802E+06  0.1398379E+09  0.2345960E+08  0.9150696E-01 -0.2227936E-03
  0.1835976E+01  0.8107202E+07  0.2669212E+06  0.1665408E+04 -0.1219739E+04 -0.8203125E-01 -0.2375938E-03 -0.2611031E+06  0.9496933E+05  0.1385381E+09  0.2151517E+08 -0.3810883E-01 -0.8264359E-03
  0.1954188E+01  0.8099583E+07  0.2371788E+06  0.1473005E+04 -0.3867014E+03 -0.1488647E+00  0.1114665E-03 -0.2467282E+06  0.2869365E+05  0.1378118E+09  0.1921331E+08 -0.1268845E+00  0.2624032E-02
  0.2072400E+01  0.8097088E+07  0.2074959E+06  0.1206443E+04  0.1839490E+03 -0.1334839E+00 -0.1973480E-03 -0.2258581E+06 -0.1698591E+05  0.1375170E+09  0.1687775E+08 -0.8845043E-01 -0.1802472E-02
  0.2190612E+01  0.8097932E+07  0.1792702E+06  0.9538599E+03  0.5756769E+03 -0.1243286E+00 -0.1847554E-03 -0.2060505E+06 -0.4823989E+05  0.1375086E+09  0.1463341E+08 -0.6013548E-01 -0.3843999E-03
  0.2308823E+01  0.8100850E+07  0.1539207E+06  0.7310181E+03  0.7564112E+03 -0.1726074E+00 -0.1814453E-03 -0.1883227E+06 -0.6258114E+05  0.1376832E+09  0.1260358E+08 -0.6690931E-01  0.8279014E-03
  0.2427035E+01  0.8105013E+07  0.1309611E+06  0.5531988E+03  0.8669376E+03 -0.1475830E+00 -0.7197189E-04 -0.1744056E+06 -0.7115223E+05  0.1379698E+09  0.1075626E+08  0.1511574E-02  0.4814370E-03
  0.2545247E+01  0.8109668E+07  0.1112043E+06  0.4249397E+03  0.8913406E+03 -0.1358032E+00 -0.9415411E-04 -0.1642345E+06 -0.7272049E+05  0.1383060E+09  0.9159974E+07 -0.2385712E-01  0.3301178E-03
  0.2663459E+01  0.8114680E+07  0.9373728E+05  0.3261878E+03  0.8897443E+03 -0.1223144E+00  0.2350683E-04 -0.1565194E+06 -0.7223399E+05  0.1386776E+09  0.7744216E+07 -0.5567741E-01 -0.8026627E-03
  0.2781670E+01  0.8119608E+07  0.7868860E+05  0.2470698E+03  0.8994232E+03 -0.1560059E+00  0.3920793E-04 -0.1504773E+06 -0.7270865E+05  0.1390487E+09  0.6521496E+07 -0.1137924E+00 -0.3926155E-03
  0.2899882E+01  0.8124262E+07  0.6565876E+05  0.2050001E+03  0.9227225E+03 -0.1138916E+00  0.9462398E-04 -0.1472502E+06 -0.7412630E+05  0.1394025E+09  0.5460744E+07 -0.2546310E-02  0.2876165E-03
  0.3018094E+01  0.8128695E+07  0.5440328E+05  0.1634187E+03  0.1001017E+04 -0.1153565E+00  0.1254581E-03 -0.1441766E+06 -0.8023759E+05  0.1397408E+09  0.4541640E+07 -0.1182632E+00  0.6677606E-03
  0.3136306E+01  0.8132556E+07  0.4398243E+05  0.1254285E+03  0.1198738E+04 -0.1035156E+00  0.1773476E-03 -0.1414750E+06 -0.9599362E+05  0.1400340E+09  0.3691731E+07 -0.3969002E-01 -0.1064801E-02
  0.3254517E+01  0.8135794E+07  0.3212028E+05  0.4101246E+02  0.1740294E+04 -0.8721924E-01  0.2243406E-03 -0.1350145E+06 -0.1396533E+06  0.1402747E+09  0.2726112E+07 -0.1556931E+00 -0.3662425E-03
  0.3372729E+01  0.8140432E+07  0.4319742E+04 -0.6661288E+03  0.2586318E+04 -0.1253051E+00 -0.4817621E-04 -0.7818084E+05 -0.2104666E+06  0.1406197E+09  0.4406612E+06 -0.7699966E-01  0.7880389E-03
  0.3490941E+01  0.8152596E+07  0.3046393E+05 -0.3938415E+03 -0.9427963E+03 -0.1124878E+00  0.1379391E-03 -0.9988123E+05  0.7433098E+05  0.1416222E+09  0.2487456E+07 -0.1606125E+00 -0.1598026E-03
  0.3609153E+01  0.8151216E+07  0.3174588E+05 -0.9955984E+02 -0.6189621E+03 -0.8886719E-01 -0.3244565E-04 -0.1233777E+06  0.4935348E+05  0.1414994E+09  0.2626006E+07 -0.4688931E-01  0.1720978E-03
  0.3727364E+01  0.8152547E+07  0.2814076E+05 -0.3198944E+02 -0.3604836E+03 -0.9136963E-01 -0.7741868E-04 -0.1289499E+06  0.2897491E+05  0.1415951E+09  0.2338428E+07 -0.1426258E+00  0.1137501E-03
  0.3845576E+01  0.8154310E+07  0.2491695E+05 -0.9115957E+01 -0.1863758E+03 -0.1165161E+00 -0.7829098E-05 -0.1309681E+06  0.1512101E+05  0.1417270E+09  0.2076463E+07 -0.1586847E+00  0.1613668E-03
  0.3963788E+01  0.8156056E+07  0.2248516E+05 -0.6612134E+00 -0.9012173E+02 -0.7855222E-01 -0.4271417E-04 -0.1318914E+06  0.7352069E+04  0.1418586E+09  0.1876568E+07 -0.4542065E-01 -0.2646114E-03
  0.4082000E+01  0.8157746E+07  0.2030508E+05  0.6535772E+01 -0.1787566E+02 -0.7055664E-01  0.3160604E-04 -0.1324525E+06  0.1507474E+04  0.1419875E+09  0.1696722E+07 -0.2548475E+00  0.3892899E-04
Zone t="Motion of body    1 in DoF   2",I=    35,F=POINT
  0.6280000E-01  0.9826392E+03 -0.2748089E-02  0.8365114E+07  0.1258740E+01  0.4174802E-01 -0.2442043E-02 -0.1563591E+09 -0.2351060E+02 -0.4578365E+05 -0.2527232E+00  0.3020258E+00 -0.2314609E-02
  0.1810118E+00  0.1013745E+04  0.1456396E+00  0.8376709E+07  0.3028534E+03  0.8178711E-01 -0.1188251E-02 -0.1568999E+09 -0.6673877E+04 -0.4400905E+05 -0.6055447E+01  0.2572839E+00  0.1095326E-01
  0.2992235E+00  0.1089604E+04  0.3661852E+01  0.8398925E+07  0.5229871E+04  0.8325196E-01 -0.3783904E-02 -0.1581074E+09 -0.1499833E+06 -0.3981045E+05 -0.4115154E+02  0.2540200E+00 -0.1101446E-01
  0.4174353E+00  0.1211419E+04  0.2623883E+02  0.8413118E+07  0.2254809E+05  0.9521496E-02 -0.6461114E-03 -0.1595413E+09 -0.8522221E+06 -0.3171148E+05  0.3997541E+03  0.1963167E+00  0.8036017E-02
  0.5356470E+00  0.1283639E+04  0.9371757E+02  0.8407383E+07  0.5080729E+05 -0.7324203E-02  0.1005303E-02 -0.1602591E+09 -0.2422228E+07 -0.2303377E+05  0.3233427E+04  0.1375482E+00  0.1207521E-03
  0.6538588E+00  0.1437616E+04  0.2395696E+03  0.8390254E+07  0.8400509E+05  0.5566405E-01  0.1786056E-01 -0.1600425E+09 -0.4732976E+07 -0.9032241E+04  0.1161264E+05  0.8447003E-01  0.5769975E-02
  0.7720706E+00  0.1560726E+04  0.5028761E+03  0.8368584E+07  0.1198941E+06  0.1025393E-01  0.2085667E-01 -0.1590900E+09 -0.7545056E+07  0.3883846E+04  0.2917565E+05  0.3084061E+00  0.3651975E-02
  0.8902823E+00  0.1632485E+04  0.9323665E+03  0.8344440E+07  0.1582424E+06  0.6335449E-01  0.5326267E-01 -0.1576395E+09 -0.1071673E+08  0.1311851E+05  0.6017522E+05  0.4068375E+00  0.1831728E-01
  0.1008494E+01  0.1566275E+04  0.1566577E+04  0.8317256E+07  0.1985691E+06  0.5224608E-01  0.2564107E-01 -0.1557498E+09 -0.1414974E+08  0.1200361E+05  0.1082113E+06  0.1754251E+00  0.1470855E-01
  0.1126706E+01  0.1267943E+04  0.2379167E+04  0.8286086E+07  0.2390716E+06  0.1647950E-01  0.1702056E-01 -0.1534018E+09 -0.1767211E+08 -0.7442662E+04  0.1720676E+06  0.6767893E-01  0.1822020E-01
  0.1244918E+01  0.6752352E+03  0.3209244E+04  0.8250636E+07  0.2757760E+06  0.5297854E-01 -0.1964793E-02 -0.1506049E+09 -0.2094079E+08 -0.5125682E+05  0.2396084E+06  0.1867890E+00 -0.9468287E-04
  0.1363129E+01 -0.1502548E+03  0.3764057E+04  0.8212556E+07  0.3027926E+06  0.4650881E-01 -0.1441736E-02 -0.1475118E+09 -0.2345220E+08 -0.1147914E+06  0.2872122E+06  0.3703675E+00  0.1209633E-02
  0.1481341E+01 -0.9876740E+03  0.3756699E+04  0.8175870E+07  0.3149674E+06  0.6018068E-01 -0.3638278E-02 -0.1444664E+09 -0.2475465E+08 -0.1815077E+06  0.2908814E+06  0.1889837E+00 -0.1154967E-01
  0.1599553E+01 -0.1603117E+04  0.3160646E+04  0.8144734E+07  0.3107619E+06  0.1107178E+00 -0.8528085E-03 -0.1418307E+09 -0.2469003E+08 -0.2316991E+06  0.2468170E+06  0.2999923E+00 -0.6058335E-02
  0.1717765E+01 -0.1878488E+04  0.2200818E+04  0.8121704E+07  0.2928612E+06  0.1130371E+00 -0.8520874E-03 -0.1398376E+09 -0.2345959E+08 -0.2551954E+06  0.1724786E+06  0.2723370E+00 -0.5050534E-02
  0.1835976E+01 -0.1851452E+04  0.1219730E+04  0.8107202E+07  0.2669212E+06  0.9350585E-01 -0.7832819E-04 -0.1385378E+09 -0.2151517E+08 -0.2542566E+06  0.9496947E+05  0.3227668E+00  0.3409924E-03
  0.1954188E+01 -0.1660684E+04  0.3867350E+03  0.8099584E+07  0.2371788E+06  0.2734376E-01  0.7884607E-04 -0.1378116E+09 -0.1921331E+08 -0.2398807E+06  0.2869565E+05  0.1729473E+00  0.3265131E-02
  0.2072400E+01 -0.1394288E+04 -0.1839344E+03  0.8097090E+07  0.2074959E+06  0.1396485E+00 -0.4870927E-03 -0.1375168E+09 -0.1687775E+08 -0.2190260E+06 -0.1698533E+05  0.2180881E+00  0.1152732E-02
  0.2190612E+01 -0.1140624E+04 -0.5756553E+03  0.8097931E+07  0.1792703E+06  0.9204102E-01 -0.4493320E-03 -0.1375084E+09 -0.1463341E+08 -0.1992107E+06 -0.4823833E+05  0.3754066E+00 -0.1328687E-02
  0.2308823E+01 -0.9167401E+03 -0.7564305E+03  0.8100853E+07  0.1539207E+06  0.1276855E+00 -0.6408380E-03 -0.1376831E+09 -0.1260358E+08 -0.1814712E+06 -0.6258241E+05  0.4996124E-01 -0.1144970E-03
  0.2427035E+01 -0.7398679E+03 -0.8669418E+03  0.8105020E+07  0.1309611E+06  0.1010742E+00 -0.3627925E-03 -0.1379695E+09 -0.1075626E+08 -0.1675666E+06 -0.7115290E+05  0.4740013E+00  0.7013241E-03
  0.2545247E+01 -0.6132086E+03 -0.8913379E+03  0.8109672E+07  0.1112042E+06  0.3088379E-01 -0.8445247E-04 -0.1383058E+09 -0.9159971E+07 -0.1573947E+06 -0.7272041E+05  0.7966459E-03  0.1724623E-02
  0.2663459E+01 -0.5143320E+03 -0.8897606E+03  0.8114682E+07  0.9373728E+05  0.1713867E+00  0.4040550E-04 -0.1386774E+09 -0.7744215E+07 -0.1496900E+06 -0.7223530E+05  0.2712389E+00  0.7578940E-03
  0.2781670E+01 -0.4346104E+03 -0.8994196E+03  0.8119612E+07  0.7868859E+05  0.9899904E-01 -0.2816811E-03 -0.1390484E+09 -0.6521496E+07 -0.1436430E+06 -0.7270855E+05  0.2309208E+00 -0.9609796E-03
  0.2899882E+01 -0.3919566E+03 -0.9227275E+03  0.8124266E+07  0.6565876E+05  0.2905273E-01  0.7814820E-04 -0.1394021E+09 -0.5460743E+07 -0.1404042E+06 -0.7412623E+05  0.2561049E+00  0.6222472E-04
  0.3018094E+01 -0.3490244E+03 -0.1001019E+04  0.8128698E+07  0.5440326E+05  0.9448243E-01 -0.1464799E-03 -0.1397404E+09 -0.4541639E+07 -0.1373430E+06 -0.8023773E+05  0.2756968E+00 -0.3140921E-03
  0.3136306E+01 -0.3137321E+03 -0.1198740E+04  0.8132562E+07  0.4398243E+05  0.6176757E-01  0.7208136E-04 -0.1400338E+09 -0.3691731E+07 -0.1346423E+06 -0.9599357E+05  0.1645229E+00 -0.5443646E-03
  0.3254517E+01 -0.2278050E+03 -0.1740293E+04  0.8135796E+07  0.3212030E+05  0.5920410E-01  0.4123391E-03 -0.1402744E+09 -0.2726112E+07 -0.1281630E+06 -0.1396532E+06 -0.1031719E+00 -0.3272516E-03
  0.3372729E+01  0.4794692E+03 -0.2586307E+04  0.8140429E+07  0.4319737E+04  0.2539063E-01  0.3760565E-03 -0.1406194E+09 -0.4406610E+06 -0.7135052E+05 -0.2104656E+06 -0.3676503E-01  0.1512854E-02
  0.3490941E+01  0.2068227E+03  0.9428030E+03  0.8152592E+07  0.3046393E+05  0.1328125E+00 -0.4925759E-05 -0.1416217E+09 -0.2487456E+07 -0.9304399E+05  0.7433151E+05  0.3237556E+00 -0.1081164E-02
  0.3609153E+01 -0.8619557E+02  0.6189576E+03  0.8151216E+07  0.3174588E+05  0.5310058E-01 -0.3003057E-04 -0.1414990E+09 -0.2626007E+07 -0.1165301E+06  0.4935304E+05  0.1658315E+00  0.2564258E-03
  0.3727364E+01 -0.1554588E+03  0.3604812E+03  0.8152550E+07  0.2814075E+05  0.2429199E-01 -0.1544375E-03 -0.1415949E+09 -0.2338427E+07 -0.1221304E+06  0.2897474E+05  0.1044765E+00 -0.2570486E-03
  0.3845576E+01 -0.1780974E+03  0.1863734E+03  0.8154309E+07  0.2491694E+05  0.6298827E-01 -0.1112623E-03 -0.1417268E+09 -0.2076462E+07 -0.1241425E+06  0.1512089E+05  0.1994901E+00 -0.2058344E-03
  0.3963788E+01 -0.1873026E+03  0.9011406E+02  0.8156054E+07  0.2248516E+05  0.5004882E-01 -0.6520539E-04 -0.1418584E+09 -0.1876569E+07 -0.1250691E+06  0.7351454E+04  0.8896565E-01 -0.1523878E-03
  0.4082000E+01 -0.1931407E+03  0.1787219E+02  0.8157741E+07  0.2030508E+05  0.8300780E-01  0.1597980E-04 -0.1419871E+09 -0.1696722E+07 -0.1256037E+06  0.1507162E+04  0.4543594E+00 -0.2523085E-03
Zone t="Motion of body    1 in DoF   3",I=    35,F=POINT
  0.6280000E-01  0.3332825E+00  0.1897676E-03 -0.1538813E+01 -0.5159260E-04  0.2538111E+06  0.2325706E+02 -0.4640189E+02  0.2858525E-02 -0.8875122E+01  0.3767128E-02  0.1609767E+05 -0.2588864E+00
  0.1810118E+00  0.3350792E+00 -0.1413032E-02 -0.1436517E+01  0.1185872E-02  0.2536998E+06  0.4933070E+02 -0.4607576E+02  0.1404764E-01 -0.1093848E+02  0.1551565E-01  0.1624357E+05 -0.1133178E+02
  0.2992235E+00  0.3479652E+00  0.2846270E-02 -0.1476782E+01  0.2282983E-03  0.2555172E+06  0.1154748E+03 -0.5178323E+02  0.4744767E-01 -0.1157495E+02  0.5490132E-01  0.1674930E+05  0.5003256E+02
  0.4174353E+00  0.2670116E+00 -0.1094170E-02 -0.1577341E+01  0.2561508E-02  0.2566947E+06  0.1597821E+04 -0.5286584E+02  0.7036450E-01 -0.9173706E+01 -0.4496907E-01  0.1695686E+05  0.4281721E+03
  0.5356470E+00  0.3189716E+00 -0.2340125E-02 -0.1562166E+01 -0.1020069E-01  0.2542528E+06  0.3832341E+04 -0.5247810E+02 -0.1950646E+00 -0.9448242E+01 -0.1163881E-01  0.1645776E+05  0.9839866E+03
  0.6538588E+00  0.3018637E+00 -0.5474930E-03 -0.1488549E+01  0.7732559E-02  0.2506610E+06  0.5116829E+04 -0.4680952E+02 -0.9609936E-01 -0.1166962E+02  0.3203046E+00  0.1567319E+05  0.1416560E+04
  0.7720706E+00  0.3034325E+00  0.4426659E-02 -0.1487718E+01  0.1883834E-02  0.2479597E+06  0.5138207E+04 -0.5059940E+02  0.1472372E+00 -0.9711823E+01  0.1352443E+00  0.1496824E+05  0.1627448E+04
  0.8902823E+00  0.3027059E+00 -0.2964846E-02 -0.1525261E+01 -0.5302251E-03  0.2465189E+06  0.4311488E+04 -0.4428251E+02  0.4869547E+00 -0.1086697E+02 -0.7966027E-01  0.1444761E+05  0.1639081E+04
  0.1008494E+01  0.2810686E+00 -0.9685074E-03 -0.1518477E+01  0.3056040E-03  0.2460952E+06  0.3136465E+04 -0.4994646E+02 -0.4460174E+00 -0.1020308E+02 -0.1375107E+00  0.1411999E+05  0.1497702E+04
  0.1126706E+01  0.2914486E+00 -0.4921258E-03 -0.1492267E+01 -0.3725059E-02  0.2462997E+06  0.2010710E+04 -0.4963260E+02  0.4786643E+00 -0.1201569E+02 -0.1036344E+00  0.1395421E+05  0.1269752E+04
  0.1244918E+01  0.3174133E+00 -0.1410448E-02 -0.1530553E+01 -0.8714385E-03  0.2467719E+06  0.1149260E+04 -0.4493131E+02  0.5417641E-01 -0.1110278E+02 -0.3442064E-01  0.1390999E+05  0.1006591E+04
  0.1363129E+01  0.2848597E+00 -0.9593864E-03 -0.1492953E+01  0.1791049E-02  0.2472729E+06  0.5904809E+03 -0.5072468E+02 -0.9755061E-02 -0.1045776E+02 -0.6489507E-02  0.1394296E+05  0.7537640E+03
  0.1481341E+01  0.3261828E+00 -0.9182661E-05 -0.1521405E+01 -0.1002058E-02  0.2476985E+06  0.2744124E+03 -0.4772491E+02  0.3259421E-01 -0.1050287E+02  0.1315522E-01  0.1401523E+05  0.5301627E+03
  0.1599553E+01  0.2714267E+00  0.1647489E-03 -0.1571129E+01  0.7545270E-03  0.2480266E+06  0.1144831E+03 -0.4901270E+02 -0.7643738E-01 -0.8303955E+01  0.7444208E-02  0.1410383E+05  0.3548318E+03
  0.1717765E+01  0.3144526E+00 -0.3798549E-03 -0.1559909E+01  0.1436998E-03  0.2482659E+06  0.3980087E+02 -0.4748018E+02 -0.2234161E-01 -0.1038504E+02 -0.4455872E-01  0.1419491E+05  0.2292628E+03
  0.1835976E+01  0.3032103E+00 -0.2289333E-03 -0.1552460E+01  0.8281322E-04  0.2484414E+06  0.8631737E+01 -0.4760567E+02  0.2566854E-02 -0.1047095E+02 -0.1543614E-01  0.1427810E+05  0.1367048E+03
  0.1954188E+01  0.3266754E+00 -0.4286416E-04 -0.1480850E+01 -0.3767358E-03  0.2485723E+06 -0.2421175E+01 -0.4803239E+02  0.3260844E-01 -0.1142365E+02 -0.3265131E-02  0.1434727E+05  0.7635378E+02
  0.2072400E+01  0.3185980E+00  0.3199289E-04 -0.1500741E+01 -0.5298436E-04  0.2486719E+06 -0.4880752E+01 -0.4931701E+02  0.5829376E-02 -0.1154602E+02  0.1909197E-02  0.1440628E+05  0.4037767E+02
  0.2190612E+01  0.3385422E+00 -0.3225094E-04 -0.1488258E+01 -0.8119453E-04  0.2487495E+06 -0.3890823E+01 -0.4851318E+02  0.7001719E-02 -0.9596924E+01 -0.3344697E-02  0.1445185E+05  0.1682508E+02
  0.2308823E+01  0.3061571E+00 -0.4967099E-04 -0.1590701E+01 -0.4020985E-06  0.2488109E+06 -0.1733193E+01 -0.4627140E+02  0.2466089E-03 -0.1023366E+02 -0.4004092E-02  0.1448891E+05  0.5641953E+01
  0.2427035E+01  0.2768302E+00 -0.3139630E-05 -0.1481803E+01  0.1105877E-05  0.2488607E+06 -0.5537704E-01 -0.4692969E+02 -0.1055313E-03 -0.8445526E+01 -0.3195596E-03  0.1451875E+05 -0.2083912E+01
  0.2545247E+01  0.2970886E+00 -0.2181758E-04 -0.1546751E+01  0.1879645E-04  0.2489009E+06  0.1333429E+01 -0.4696523E+02 -0.1697315E-02 -0.1090278E+02 -0.1842955E-02  0.1454343E+05 -0.5566061E+01
  0.2663459E+01  0.3232837E+00 -0.2120365E-04 -0.1580870E+01  0.2732438E-04  0.2489349E+06  0.2574491E+01 -0.4701253E+02 -0.2258045E-02 -0.1085558E+02 -0.1672955E-02  0.1456452E+05 -0.5936732E+01
  0.2781670E+01  0.3369135E+00  0.5860010E-05 -0.1479980E+01  0.8532248E-05  0.2489644E+06 -0.5313241E+00 -0.5054270E+02 -0.8325670E-03 -0.1071643E+02  0.4324076E-03  0.1457890E+05 -0.2739787E-01
  0.2899882E+01  0.3044347E+00 -0.1056524E-04 -0.1576529E+01  0.3179970E-04  0.2489895E+06 -0.3618147E+00 -0.5184521E+02 -0.2921710E-02 -0.9606041E+01 -0.7729693E-03  0.1459189E+05 -0.1911925E+01
  0.3018094E+01  0.2993230E+00 -0.9523054E-05 -0.1514856E+01  0.8095159E-05  0.2490116E+06 -0.1880655E+00 -0.4649092E+02 -0.6121739E-03 -0.1022593E+02 -0.7361197E-03  0.1460317E+05 -0.2092331E+01
  0.3136306E+01  0.3022416E+00 -0.3581039E-05 -0.1558104E+01 -0.5228433E-06  0.2490333E+06 -0.1300018E+00 -0.5131081E+02 -0.8935655E-04 -0.8297897E+01 -0.3372369E-03  0.1461344E+05 -0.2835245E+01
  0.3254517E+01  0.3422863E+00 -0.5334570E-05 -0.1495365E+01  0.3712982E-05  0.2490507E+06 -0.1168858E+00 -0.4997926E+02 -0.3856409E-03 -0.9563324E+01 -0.3064953E-03  0.1462182E+05 -0.2007992E+01
  0.3372729E+01  0.3178726E+00  0.3034301E-05 -0.1560659E+01 -0.2445345E-05  0.2490664E+06 -0.2890816E-01 -0.4924256E+02  0.2026386E-03 -0.8877449E+01  0.2693806E-03  0.1462904E+05 -0.1652178E+01
  0.3490941E+01  0.3005410E+00 -0.5787122E-06 -0.1492928E+01  0.2142536E-05  0.2490801E+06  0.2592372E-01 -0.4365977E+02 -0.1763446E-03 -0.8768154E+01 -0.6616826E-04  0.1463587E+05 -0.1846813E+01
  0.3609153E+01  0.3051674E+00 -0.1186534E-05 -0.1504153E+01  0.5163775E-05  0.2490922E+06  0.7968131E-01 -0.5009546E+02 -0.3803899E-03 -0.8230877E+01 -0.7572304E-04  0.1464172E+05 -0.1474376E+01
  0.3727364E+01  0.3588877E+00  0.4998785E-06 -0.1468878E+01  0.6620787E-05  0.2491037E+06  0.1001522E+00 -0.5232751E+02 -0.4929358E-03 -0.1139751E+02  0.5887458E-04  0.1464680E+05 -0.1191341E+01
  0.3845576E+01  0.3315380E+00 -0.8702977E-06 -0.1514466E+01  0.5009584E-05  0.2491147E+06  0.7423232E-01 -0.4887094E+02 -0.4873667E-03 -0.1019256E+02 -0.4767656E-04  0.1465158E+05 -0.1092039E+01
  0.3963788E+01  0.3078638E+00 -0.1340038E-05 -0.1482977E+01  0.4820261E-05  0.2491254E+06  0.6732558E-01 -0.4611489E+02 -0.4352798E-03 -0.9297901E+01 -0.1001743E-03  0.1465593E+05 -0.1047550E+01
  0.4082000E+01  0.3188470E+00  0.1554166E-05 -0.1444460E+01 -0.3569995E-07  0.2491343E+06  0.5089144E-01 -0.4492199E+02 -0.2661161E-06 -0.9103474E+01  0.1347916E-03  0.1465972E+05 -0.1147165E+01
Zone t="Motion of body    1 in DoF   4",I=    35,F=POINT
  0.6280000E-01 -0.3852672E+06 -0.1725245E+00 -0.1563802E+09 -0.2358103E+02  0.2417968E+01  0.6285002E-02  0.1233291E+11  0.4307199E+03 -0.9162122E+07 -0.1887026E+01  0.6866379E+01  0.2857074E-03
  0.1810118E+00 -0.3883284E+06 -0.2840128E+02 -0.1569212E+09 -0.6691886E+04  0.1011721E+01 -0.9035624E-03  0.1236184E+11  0.1475070E+06 -0.9332214E+07 -0.4531032E+03  0.2911469E+01  0.3387367E-02
  0.2992235E+00 -0.3950992E+06 -0.5574232E+03 -0.1581288E+09 -0.1502167E+06  0.2855468E+01  0.1142772E+00  0.1242913E+11  0.4308089E+07 -0.9725957E+07 -0.1180621E+05  0.1606145E+02  0.1505608E+00
  0.4174353E+00 -0.4047682E+06 -0.3012225E+04 -0.1595622E+09 -0.8528779E+06 -0.5214843E+01 -0.2716614E+00  0.1253347E+11  0.3224187E+08 -0.1039235E+08 -0.9143588E+05  0.4748383E+01  0.4575185E+00
  0.5356470E+00 -0.4126634E+06 -0.9139998E+04 -0.1602811E+09 -0.2423320E+07 -0.9765645E+00 -0.8402213E-01  0.1262844E+11  0.1156310E+09 -0.1121101E+08 -0.3769298E+06  0.8618896E+01  0.6959458E-01
  0.6538588E+00 -0.4243494E+06 -0.2130966E+05 -0.1600649E+09 -0.4734350E+07 -0.1582032E+01 -0.7721012E+00  0.1267131E+11  0.2671879E+09 -0.1229775E+08 -0.1094931E+07  0.8103546E+01 -0.2716887E+00
  0.7720706E+00 -0.4344631E+06 -0.4279935E+05 -0.1591133E+09 -0.7547304E+07 -0.2191402E+01 -0.1326115E+01  0.1264882E+11  0.4758670E+09 -0.1332668E+08 -0.2539193E+07 -0.7757874E+00 -0.8050349E+00
  0.8902823E+00 -0.4406820E+06 -0.7785533E+05 -0.1576635E+09 -0.1072089E+08 -0.7460926E+00 -0.3994446E+01  0.1257231E+11  0.7272149E+09 -0.1410111E+08 -0.5073216E+07  0.4387177E+01 -0.1670977E+01
  0.1008494E+01 -0.4363196E+06 -0.1300495E+06 -0.1557735E+09 -0.1415730E+08 -0.8085923E+00 -0.2339665E+01  0.1244826E+11  0.1009993E+10 -0.1408290E+08 -0.9025950E+07  0.2849945E+01 -0.1106118E+01
  0.1126706E+01 -0.4132245E+06 -0.1980012E+06 -0.1534248E+09 -0.1768461E+08  0.1875008E+00 -0.1433884E+01  0.1227725E+11  0.1308286E+10 -0.1258941E+08 -0.1435766E+08  0.8337036E+01 -0.8663649E+00
  0.1244918E+01 -0.3652537E+06 -0.2690265E+06 -0.1506246E+09 -0.2095850E+08  0.1632811E+01  0.1419062E-01  0.1206123E+11  0.1592350E+10 -0.9064016E+07 -0.2012058E+08  0.6025940E+01 -0.6435823E+00
  0.1363129E+01 -0.2973392E+06 -0.3186844E+06 -0.1475262E+09 -0.2347312E+08 -0.3437484E+00  0.1043208E+00  0.1181372E+11  0.1818805E+10 -0.3822608E+07 -0.2435117E+08  0.1302521E+01  0.2227648E+00
  0.1481341E+01 -0.2266091E+06 -0.3225198E+06 -0.1444751E+09 -0.2477618E+08  0.2500000E+01  0.2307479E+00  0.1156404E+11  0.1947853E+10  0.1794102E+07 -0.2500721E+08  0.7045197E+01  0.6131418E+00
  0.1599553E+01 -0.1731742E+06 -0.2766715E+06 -0.1418354E+09 -0.2470936E+08 -0.1015619E+00  0.4399563E-01  0.1134368E+11  0.1963604E+10  0.6144206E+07 -0.2164223E+08  0.1214903E+02 -0.1059762E+00
  0.1717765E+01 -0.1476767E+06 -0.1988060E+06 -0.1398391E+09 -0.2347219E+08 -0.2875000E+01  0.1616802E+00  0.1117367E+11  0.1880562E+10  0.8301166E+07 -0.1562149E+08  0.8036926E+01  0.6574246E+00
  0.1835976E+01 -0.1476329E+06 -0.1173308E+06 -0.1385380E+09 -0.2152050E+08 -0.1082031E+01 -0.3100180E-01  0.1105979E+11  0.1734889E+10  0.8411956E+07 -0.9188883E+07  0.2011337E+00 -0.2469783E+00
  0.1954188E+01 -0.1618834E+06 -0.4684708E+05 -0.1378117E+09 -0.1921085E+08  0.1402344E+01  0.6759434E-02  0.1099323E+11  0.1556386E+10  0.7352517E+07 -0.3582438E+07  0.4644962E+01 -0.2430808E+00
  0.2072400E+01 -0.1830801E+06  0.2628294E+04 -0.1375181E+09 -0.1686669E+08  0.4179688E+00  0.3415494E-01  0.1096286E+11  0.1372040E+10  0.5701547E+07  0.3778417E+06  0.6971466E+01 -0.1318018E+00
  0.2190612E+01 -0.2035994E+06  0.3732350E+05 -0.1375110E+09 -0.1461536E+08  0.2539062E+01  0.3286952E-01  0.1095684E+11  0.1193081E+10  0.4091852E+07  0.3148215E+07  0.3665380E+00  0.1731471E-01
  0.2308823E+01 -0.2220906E+06  0.5453957E+05 -0.1376881E+09 -0.1257847E+08  0.2773438E+00  0.4892096E-01  0.1096672E+11  0.1030006E+10  0.2627558E+07  0.4518410E+07  0.5407614E+01 -0.6799361E-02
  0.2427035E+01 -0.2369302E+06  0.6555377E+05 -0.1379768E+09 -0.1072515E+08  0.6171877E+00  0.2845918E-01  0.1098648E+11  0.8809076E+09  0.1460520E+07  0.5379927E+07  0.8900358E+01 -0.1679845E+00
  0.2545247E+01 -0.2478867E+06  0.6920348E+05 -0.1383150E+09 -0.9122898E+07 -0.6874997E+00  0.5317801E-02  0.1101100E+11  0.7514656E+09  0.5929644E+06  0.5643046E+07  0.7107090E+01  0.1871962E-01
  0.2663459E+01 -0.2564092E+06  0.7034325E+05 -0.1386893E+09 -0.7702748E+07 -0.6523435E+00 -0.2121913E-02  0.1103888E+11  0.6363690E+09 -0.7349129E+05  0.5706934E+07  0.6068153E+00 -0.5137042E-01
  0.2781670E+01 -0.2632112E+06  0.7208846E+05 -0.1390628E+09 -0.6475796E+07 -0.6992183E+00  0.6909320E-02  0.1106715E+11  0.5366877E+09 -0.5999081E+06  0.5823595E+07  0.6576103E+01  0.3786087E-01
  0.2899882E+01 -0.2671078E+06  0.7484809E+05 -0.1394189E+09 -0.5411038E+07  0.2500000E+00  0.3414798E-03  0.1109435E+11  0.4500165E+09 -0.8952314E+06  0.6009626E+07  0.3890266E+01  0.2643859E-01
  0.3018094E+01 -0.2708992E+06  0.8185662E+05 -0.1397597E+09 -0.4489070E+07  0.6835936E+00  0.4835171E-02  0.1112057E+11  0.3747433E+09 -0.1177311E+07  0.6558985E+07  0.5514572E+01  0.1349337E-01
  0.3136306E+01 -0.2742055E+06  0.9866595E+05 -0.1400555E+09 -0.3633349E+07  0.6328124E+00 -0.1052266E-01  0.1114336E+11  0.3049622E+09 -0.1421809E+07  0.7899550E+07  0.1071380E+02  0.1651040E-02
  0.3254517E+01 -0.2815062E+06  0.1437756E+06 -0.1403005E+09 -0.2656426E+07 -0.2265624E+00 -0.1870550E-01  0.1116196E+11  0.2254491E+09 -0.1978680E+07  0.1153717E+08  0.5970848E+01  0.1515871E-01
  0.3372729E+01 -0.3402580E+06  0.2140502E+06 -0.1406646E+09 -0.3577018E+06  0.7890620E+00 -0.4122519E-02  0.1118931E+11  0.3648461E+08 -0.6698100E+07  0.1741882E+08 -0.3731909E+00  0.7670674E-01
  0.3490941E+01 -0.3178357E+06 -0.7804507E+05 -0.1416537E+09 -0.2523498E+07  0.4335944E+00  0.4110253E-01  0.1127126E+11  0.2060511E+09 -0.4918424E+07 -0.6152901E+07  0.2756672E+01  0.1683254E-01
  0.3609153E+01 -0.2937165E+06 -0.5112853E+05 -0.1415231E+09 -0.2631652E+07  0.1054686E+00  0.2871102E-02  0.1126012E+11  0.2176934E+09 -0.2986542E+07 -0.4076182E+07  0.1006057E+02 -0.9362121E-02
  0.3727364E+01 -0.2882501E+06 -0.2966060E+05 -0.1416183E+09 -0.2334676E+07  0.3515649E-01  0.1496872E-01  0.1126710E+11  0.1940113E+09 -0.2534468E+07 -0.2383456E+07  0.2899609E+01  0.5502662E-01
  0.3845576E+01 -0.2864509E+06 -0.1527823E+05 -0.1417504E+09 -0.2069357E+07 -0.1070312E+01  0.1264231E-01  0.1127714E+11  0.1724543E+09 -0.2378137E+07 -0.1238942E+07  0.2148010E+01 -0.1466971E-03
  0.3963788E+01 -0.2856971E+06 -0.7281145E+04 -0.1418820E+09 -0.1869042E+07 -0.1371094E+01  0.5393096E-02  0.1128718E+11  0.1559896E+09 -0.2306780E+07 -0.5935207E+06  0.6891844E+01  0.1345738E-02
  0.4082000E+01 -0.2852970E+06 -0.1251332E+04 -0.1420110E+09 -0.1689870E+07 -0.1316406E+01 -0.1217991E-02  0.1129705E+11  0.1412084E+09 -0.2268246E+07 -0.1056933E+06  0.7162970E+01  0.2606685E-01
Zone t="Motion of body    1 in DoF   5",I=    35,F=POINT
  0.6280000E-01  0.1563803E+09  0.2362505E+02 -0.3770036E+06 -0.1090207E+00  0.5132811E+01 -0.6451669E-02  0.9442049E+07  0.1945435E+01  0.1233291E+11  0.4313849E+03  0.3076172E+01 -0.1720907E-02
  0.1810118E+00  0.1569213E+09  0.6691714E+04 -0.3800580E+06 -0.2714049E+02  0.4033203E+01 -0.5734131E-01  0.9612307E+07  0.4005226E+03  0.1236184E+11  0.1474978E+06  0.6046387E+01  0.5701803E-02
  0.2992235E+00  0.1581290E+09  0.1502165E+06 -0.3867778E+06 -0.5498421E+03  0.6541016E+01  0.1644984E+00  0.1000360E+08  0.1151835E+05  0.1242913E+11  0.4308095E+07  0.6006836E+01  0.2054639E+00
  0.4174353E+00  0.1595625E+09  0.8528805E+06 -0.3965021E+06 -0.2995562E+04  0.6179686E+01  0.6343568E+00  0.1067153E+08  0.9049398E+05  0.1253345E+11  0.3224200E+08  0.7597656E+01  0.2407295E+00
  0.5356470E+00  0.1602814E+09  0.2423321E+07 -0.4044395E+06 -0.9126461E+04  0.4119141E+01  0.1352755E+01  0.1149253E+08  0.3757898E+06  0.1262844E+11  0.1156311E+09  0.6667969E+01  0.8779296E+00
  0.6538588E+00  0.1600650E+09  0.4734351E+07 -0.4161153E+06 -0.2130266E+05  0.4550787E+00  0.2930146E+00  0.1257806E+08  0.1094213E+07  0.1267130E+11  0.2671879E+09  0.4932617E+01  0.5206047E-01
  0.7720706E+00  0.1591133E+09  0.7547301E+07 -0.4262073E+06 -0.4280000E+05  0.2001952E+01  0.5937009E+00  0.1360732E+08  0.2539140E+07  0.1264881E+11  0.4758665E+09  0.5362305E+01  0.1881639E+00
  0.8902823E+00  0.1576636E+09  0.1072090E+08 -0.4324326E+06 -0.7785483E+05  0.1863282E+01  0.8443775E-01  0.1438371E+08  0.5073145E+07  0.1257230E+11  0.7272153E+09  0.2738281E+01  0.1608420E-01
  0.1008494E+01  0.1557737E+09  0.1415730E+08 -0.4280736E+06 -0.1300509E+06  0.2740235E+01  0.3173902E+00  0.1436385E+08  0.9026089E+07  0.1244825E+11  0.1009993E+10  0.9616211E+01  0.1721039E+00
  0.1126706E+01  0.1534250E+09  0.1768461E+08 -0.4049728E+06 -0.1980032E+06  0.1171887E-01 -0.3275261E+00  0.1286924E+08  0.1435775E+08  0.1227725E+11  0.1308286E+10  0.3332031E+01  0.2283120E-01