VARIABLES="X" "Y" "Z" "NX" "NY" "NZ" "A"
 ZONE N=         489 , E=         912  , F=FEPOINT,ET=QUADRILATERAL
   0.3021810E+01  -0.1196310E+01  -0.5355000E+01   0.0000000E+00   0.0000000E+00   0.0000000E+00   0.0000000E+00
   0.3250000E+01   0.0000000E+00  -0.5355000E+01   0.0000000E+00   0.0000000E+00   0.0000000E+00   0.0000000E+00
   0.3250000E+01   0.0000000E+00  -0.5550000E+00   0.0000000E+00   0.0000000E+00   0.0000000E+00   0.0000000E+00
   0.3021810E+01  -0.1196310E+01  -0.5550000E+00   0.0000000E+00   0.0000000E+00   0.0000000E+00   0.0000000E+00
   0.3021810E+01  -0.1196310E+01  -0.1015500E+02   0.0000000E+00   0.0000000E+00   0.0000000E+00   0.0000000E+00
   0.3250000E+01   0.0000000E+00  -0.1015500E+02   0.0000000E+00   0.0000000E+00   0.0000000E+00   0.0000000E+00
   0.2298100E+01  -0.2298100E+01  -0.5355000E+01   0.0000000E+00   0.0000000E+00   0.0000000E+00   0.0000000E+00
   0.2298100E+01  -0.2298100E+01  -0.5550000E+00   0.0000000E+00   0.0000000E+00   0.0000000E+00   0.0000000E+00
   0.2298100E+01  -0.2298100E+01  -0.1015500E+02   0.0000000E+00   0.0000000E+00   0.0000000E+00   0.0000000E+00
   0.1196310E+01  -0.3021810E+01  -0.5355000E+01   0.0000000E+00   0.0000000E+00   0.0000000E+00   0.0000000E+00
   0.1196310E+01  -0.3021810E+01  -0.5550000E+00   0.0000000E+00   0.0000000E+00   0.0000000E+00   0.0000000E+00
   0.1196310E+01  -0.3021810E+01  -0.1015500E+02   0.0000000E+00   0.0000000E+00   0.0000000E+00   0.0000000E+00
   0.1990050E-15  -0.3250000E+01  -0.5355000E+01   0.0000000E+00   0.0000000E+00   0.0000000E+00   0.0000000E+00
   0.1990050E-15  -0.3250000E+01  -0.5550000E+00   0.0000000E+00   0.0000000E+00   0.0000000E+00   0.0000000E+00
   0.1990050E-15  -0.3250000E+01  -0.1015500E+02   0.0000000E+00   0.0000000E+00   0.0000000E+00   0.0000000E+00
  -0.1196310E+01  -0.3021810E+01  -0.5355000E+01   0.0000000E+00   0.0000000E+00   0.0000000E+00   0.0000000E+00
  -0.1196310E+01  -0.3021810E+01  -0.5550000E+00   0.0000000E+00   0.0000000E+00   0.0000000E+00   0.0000000E+00
  -0.1196310E+01  -0.3021810E+01  -0.1015500E+02   0.0000000E+00   0.0000000E+00   0.0000000E+00   0.0000000E+00
  -0.2298100E+01  -0.2298100E+01  -0.5355000E+01   0.0000000E+00   0.0000000E+00   0.0000000E+00   0.0000000E+00
  -0.2298100E+01  -0.2298100E+01  -0.5550000E+00   0.0000000E+00   0.0000000E+00   0.0000000E+00   0.0000000E+00
  -0.2298100E+01  -0.2298100E+01  -0.1015500E+02   0.0000000E+00   0.0000000E+00   0.0000000E+00   0.0000000E+00
  -0.3021810E+01  -0.1196310E+01  -0.5355000E+01   0.0000000E+00   0.0000000E+00   0.0000000E+00   0.0000000E+00
  -0.3021810E+01  -0.1196310E+01  -0.5550000E+00   0.0000000E+00   0.0000000E+00   0.0000000E+00   0.0000000E+00
  -0.3021810E+01  -0.1196310E+01  -0.1015500E+02   0.0000000E+00   0.0000000E+00   0.0000000E+00   0.0000000E+00
  -0.3250000E+01  -0.3980100E-15  -0.5355000E+01   0.0000000E+00   0.0000000E+00   0.0000000E+00   0.0000000E+00
  -0.3250000E+01  -0.3980100E-15  -0.5550000E+00   0.0000000E+00   0.0000000E+00   0.0000000E+00   0.0000000E+00
  -0.3250000E+01  -0.3980100E-15  -0.1015500E+02   0.0000000E+00   0.0000000E+00   0.0000000E+00   0.0000000E+00
  -0.3021810E+01   0.1196310E+01  -0.5355000E+01   0.0000000E+00   0.0000000E+00   0.0000000E+00   0.0000000E+00
  -0.3021810E+01   0.1196310E+01  -0.5550000E+00   0.0000000E+00   0.0000000E+00   0.0000000E+00   0.0000000E+00
  -0.3021810E+01   0.1196310E+01  -0.1015500E+02   0.0000000E+00   0.0000000E+00   0.0000000E+00   0.0000000E+00
  -0.2298100E+01   0.2298100E+01  -0.5355000E+01   0.0000000E+00   0.0000000E+00   0.0000000E+00   0.0000000E+00
  -0.2298100E+01   0.2298100E+01  -0.5550000E+00   0.0000000E+00   0.0000000E+00   0.0000000E+00   0.0000000E+00
  -0.2298100E+01   0.2298100E+01  -0.1015500E+02   0.0000000E+00   0.0000000E+00   0.0000000E+00   0.0000000E+00
  -0.1196310E+01   0.3021810E+01  -0.5355000E+01   0.0000000E+00   0.0000000E+00   0.0000000E+00   0.0000000E+00
  -0.1196310E+01   0.3021810E+01  -0.5550000E+00   0.0000000E+00   0.0000000E+00   0.0000000E+00   0.0000000E+00
  -0.1196310E+01   0.3021810E+01  -0.1015500E+02   0.0000000E+00   0.0000000E+00   0.0000000E+00   0.0000000E+00
  -0.5970150E-15   0.3250000E+01  -0.5355000E+01   0.0000000E+00   0.0000000E+00   0.0000000E+00   0.0000000E+00
  -0.5970150E-15   0.3250000E+01  -0.5550000E+00   0.0000000E+00   0.0000000E+00   0.0000000E+00   0.0000000E+00
  -0.5970150E-15   0.3250000E+01  -0.1015500E+02   0.0000000E+00   0.0000000E+00   0.0000000E+00   0.0000000E+00
   0.1196310E+01   0.3021810E+01  -0.5355000E+01   0.0000000E+00   0.0000000E+00   0.0000000E+00   0.0000000E+00
   0.1196310E+01   0.3021810E+01  -0.5550000E+00   0.0000000E+00   0.0000000E+00   0.0000000E+00   0.0000000E+00
   0.1196310E+01   0.3021810E+01  -0.1015500E+02   0.0000000E+00   0.0000000E+00   0.0000000E+00   0.0000000E+00
   0.2298100E+01   0.2298100E+01  -0.5355000E+01   0.0000000E+00   0.0000000E+00   0.0000000E+00   0.0000000E+00
   0.2298100E+01   0.2298100E+01  -0.5550000E+00   0.0000000E+00   0.0000000E+00   0.0000000E+00   0.0000000E+00
   0.2298100E+01   0.2298100E+01  -0.1015500E+02   0.0000000E+00   0.0000000E+00   0.0000000E+00   0.0000000E+00
   0.3021810E+01   0.1196310E+01  -0.5355000E+01   0.0000000E+00   0.0000000E+00   0.0000000E+00   0.0000000E+00
   0.3021810E+01   0.1196310E+01  -0.5550000E+00   0.0000000E+00   0.0000000E+00   0.0000000E+00   0.0000000E+00
   0.3021810E+01   0.1196310E+01  -0.1015500E+02   0.0000000E+00   0.0000000E+00   0.0000000E+00   0.0000000E+00
   0.3672420E+01   0.1521170E+01  -0.1415500E+02   0.0000000E+00   0.0000000E+00   0.0000000E+00   0.0000000E+00
   0.3975000E+01   0.0000000E+00  -0.1415500E+02   0.0000000E+00   0.0000000E+00   0.0000000E+00   0.0000000E+00
   0.4700000E+01   0.0000000E+00  -0.1815500E+02   0.0000000E+00   0.0000000E+00   0.0000000E+00   0.0000000E+00
   0.4342230E+01   0.1798610E+01  -0.1815500E+02   0.0000000E+00   0.0000000E+00   0.0000000E+00   0.0000000E+00
   0.3002610E+01   0.1243720E+01  -0.1015500E+02   0.0000000E+00   0.0000000E+00   0.0000000E+00   0.0000000E+00
   0.2810750E+01   0.2810750E+01  -0.1415500E+02   0.0000000E+00   0.0000000E+00   0.0000000E+00   0.0000000E+00
   0.3323400E+01   0.3323400E+01  -0.1815500E+02   0.0000000E+00   0.0000000E+00   0.0000000E+00   0.0000000E+00
   0.1521170E+01   0.3672420E+01  -0.1415500E+02   0.0000000E+00   0.0000000E+00   0.0000000E+00   0.0000000E+00
   0.1798610E+01   0.4342230E+01  -0.1815500E+02   0.0000000E+00   0.0000000E+00   0.0000000E+00   0.0000000E+00
   0.1243720E+01   0.3002610E+01  -0.1015500E+02   0.0000000E+00   0.0000000E+00   0.0000000E+00   0.0000000E+00
   0.2433990E-15   0.3975000E+01  -0.1415500E+02   0.0000000E+00   0.0000000E+00   0.0000000E+00   0.0000000E+00
   0.2877920E-15   0.4700000E+01  -0.1815500E+02   0.0000000E+00   0.0000000E+00   0.0000000E+00   0.0000000E+00
  -0.1521170E+01   0.3672420E+01  -0.1415500E+02   0.0000000E+00   0.0000000E+00   0.0000000E+00   0.0000000E+00
  -0.1798610E+01   0.4342230E+01  -0.1815500E+02   0.0000000E+00   0.0000000E+00   0.0000000E+00   0.0000000E+00
  -0.1243720E+01   0.3002610E+01  -0.1015500E+02   0.0000000E+00   0.0000000E+00   0.0000000E+00   0.0000000E+00
  -0.2810750E+01   0.2810750E+01  -0.1415500E+02   0.0000000E+00   0.0000000E+00   0.0000000E+00   0.0000000E+00
  -0.3323400E+01   0.3323400E+01  -0.1815500E+02   0.0000000E+00   0.0000000E+00   0.0000000E+00   0.0000000E+00
  -0.3672420E+01   0.1521170E+01  -0.1415500E+02   0.0000000E+00   0.0000000E+00   0.0000000E+00   0.0000000E+00
  -0.4342230E+01   0.1798610E+01  -0.1815500E+02   0.0000000E+00   0.0000000E+00   0.0000000E+00   0.0000000E+00
  -0.3002610E+01   0.1243720E+01  -0.1015500E+02   0.0000000E+00   0.0000000E+00   0.0000000E+00   0.0000000E+00
  -0.3975000E+01   0.4867970E-15  -0.1415500E+02   0.0000000E+00   0.0000000E+00   0.0000000E+00   0.0000000E+00
  -0.4700000E+01   0.5755840E-15  -0.1815500E+02   0.0000000E+00   0.0000000E+00   0.0000000E+00   0.0000000E+00
  -0.3672420E+01  -0.1521170E+01  -0.1415500E+02   0.0000000E+00   0.0000000E+00   0.0000000E+00   0.0000000E+00
  -0.4342230E+01  -0.1798610E+01  -0.1815500E+02   0.0000000E+00   0.0000000E+00   0.0000000E+00   0.0000000E+00
  -0.3002610E+01  -0.1243720E+01  -0.1015500E+02   0.0000000E+00   0.0000000E+00   0.0000000E+00   0.0000000E+00
  -0.2810750E+01  -0.2810750E+01  -0.1415500E+02   0.0000000E+00   0.0000000E+00   0.0000000E+00   0.0000000E+00
  -0.3323400E+01  -0.3323400E+01  -0.1815500E+02   0.0000000E+00   0.0000000E+00   0.0000000E+00   0.0000000E+00
  -0.1521170E+01  -0.3672420E+01  -0.1415500E+02   0.0000000E+00   0.0000000E+00   0.0000000E+00   0.0000000E+00
  -0.1798610E+01  -0.4342230E+01  -0.1815500E+02   0.0000000E+00   0.0000000E+00   0.0000000E+00   0.0000000E+00
  -0.1243720E+01  -0.3002610E+01  -0.1015500E+02   0.0000000E+00   0.0000000E+00   0.0000000E+00   0.0000000E+00
  -0.7301960E-15  -0.3975000E+01  -0.1415500E+02   0.0000000E+00   0.0000000E+00   0.0000000E+00   0.0000000E+00
  -0.8633760E-15  -0.4700000E+01  -0.1815500E+02   0.0000000E+00   0.0000000E+00   0.0000000E+00   0.0000000E+00
   0.1521170E+01  -0.3672420E+01  -0.1415500E+02   0.0000000E+00   0.0000000E+00   0.0000000E+00   0.0000000E+00
   0.1798610E+01  -0.4342230E+01  -0.1815500E+02   0.0000000E+00   0.0000000E+00   0.0000000E+00   0.0000000E+00
   0.1243720E+01  -0.3002610E+01  -0.1015500E+02   0.0000000E+00   0.0000000E+00   0.0000000E+00   0.0000000E+00
   0.2810750E+01  -0.2810750E+01  -0.1415500E+02   0.0000000E+00   0.0000000E+00   0.0000000E+00   0.0000000E+00
   0.3323400E+01  -0.3323400E+01  -0.1815500E+02   0.0000000E+00   0.0000000E+00   0.0000000E+00   0.0000000E+00
   0.3672420E+01  -0.1521170E+01  -0.1415500E+02   0.0000000E+00   0.0000000E+00   0.0000000E+00   0.0000000E+00
   0.4342230E+01  -0.1798610E+01  -0.1815500E+02   0.0000000E+00   0.0000000E+00   0.0000000E+00   0.0000000E+00
   0.3002610E+01  -0.1243720E+01  -0.1015500E+02   0.0000000E+00   0.0000000E+00   0.0000000E+00   0.0000000E+00
   0.4370010E+01  -0.1730050E+01  -0.2306410E+02   0.0000000E+00   0.0000000E+00   0.0000000E+00   0.0000000E+00
   0.4700000E+01   0.0000000E+00  -0.2306410E+02   0.0000000E+00   0.0000000E+00   0.0000000E+00   0.0000000E+00
   0.4370010E+01  -0.1730050E+01  -0.1815500E+02   0.0000000E+00   0.0000000E+00   0.0000000E+00   0.0000000E+00
   0.4370010E+01  -0.1730050E+01  -0.2797320E+02   0.0000000E+00   0.0000000E+00   0.0000000E+00   0.0000000E+00
   0.4700000E+01   0.0000000E+00  -0.2797320E+02   0.0000000E+00   0.0000000E+00   0.0000000E+00   0.0000000E+00
   0.4370010E+01  -0.1730050E+01  -0.3288230E+02   0.0000000E+00   0.0000000E+00   0.0000000E+00   0.0000000E+00
   0.4700000E+01   0.0000000E+00  -0.3288230E+02   0.0000000E+00   0.0000000E+00   0.0000000E+00   0.0000000E+00
   0.4370010E+01  -0.1730050E+01  -0.3779140E+02   0.0000000E+00   0.0000000E+00   0.0000000E+00   0.0000000E+00
   0.4700000E+01   0.0000000E+00  -0.3779140E+02   0.0000000E+00   0.0000000E+00   0.0000000E+00   0.0000000E+00
   0.4370010E+01  -0.1730050E+01  -0.4270050E+02   0.0000000E+00   0.0000000E+00   0.0000000E+00   0.0000000E+00
   0.4700000E+01   0.0000000E+00  -0.4270050E+02   0.0000000E+00   0.0000000E+00   0.0000000E+00   0.0000000E+00
   0.4370010E+01  -0.1730050E+01  -0.4760950E+02   0.0000000E+00   0.0000000E+00   0.0000000E+00   0.0000000E+00
   0.4700000E+01   0.0000000E+00  -0.4760950E+02   0.0000000E+00   0.0000000E+00   0.0000000E+00   0.0000000E+00
   0.4370010E+01  -0.1730050E+01  -0.5251860E+02   0.0000000E+00   0.0000000E+00   0.0000000E+00   0.0000000E+00
   0.4700000E+01   0.0000000E+00  -0.5251860E+02   0.0000000E+00   0.0000000E+00   0.0000000E+00   0.0000000E+00
   0.4370010E+01  -0.1730050E+01  -0.5742770E+02   0.0000000E+00   0.0000000E+00   0.0000000E+00   0.0000000E+00
   0.4700000E+01   0.0000000E+00  -0.5742770E+02   0.0000000E+00   0.0000000E+00   0.0000000E+00   0.0000000E+00
   0.4370010E+01  -0.1730050E+01  -0.6233680E+02   0.0000000E+00   0.0000000E+00   0.0000000E+00   0.0000000E+00
   0.4700000E+01   0.0000000E+00  -0.6233680E+02   0.0000000E+00   0.0000000E+00   0.0000000E+00   0.0000000E+00
   0.4370010E+01  -0.1730050E+01  -0.6724590E+02   0.0000000E+00   0.0000000E+00   0.0000000E+00   0.0000000E+00
   0.4700000E+01   0.0000000E+00  -0.6724590E+02   0.0000000E+00   0.0000000E+00   0.0000000E+00   0.0000000E+00
   0.4370010E+01  -0.1730050E+01  -0.7215500E+02   0.0000000E+00   0.0000000E+00   0.0000000E+00   0.0000000E+00
   0.4700000E+01   0.0000000E+00  -0.7215500E+02   0.0000000E+00   0.0000000E+00   0.0000000E+00   0.0000000E+00
   0.4370010E+01  -0.1730050E+01  -0.7706410E+02   0.0000000E+00   0.0000000E+00   0.0000000E+00   0.0000000E+00
   0.4700000E+01   0.0000000E+00  -0.7706410E+02   0.0000000E+00   0.0000000E+00   0.0000000E+00   0.0000000E+00
   0.4370010E+01  -0.1730050E+01  -0.8197320E+02   0.0000000E+00   0.0000000E+00   0.0000000E+00   0.0000000E+00
   0.4700000E+01   0.0000000E+00  -0.8197320E+02   0.0000000E+00   0.0000000E+00   0.0000000E+00   0.0000000E+00
   0.4370010E+01  -0.1730050E+01  -0.8688230E+02   0.0000000E+00   0.0000000E+00   0.0000000E+00   0.0000000E+00
   0.4700000E+01   0.0000000E+00  -0.8688230E+02   0.0000000E+00   0.0000000E+00   0.0000000E+00   0.0000000E+00
   0.4370010E+01  -0.1730050E+01  -0.9179140E+02   0.0000000E+00   0.0000000E+00   0.0000000E+00   0.0000000E+00
   0.4700000E+01   0.0000000E+00  -0.9179140E+02   0.0000000E+00   0.0000000E+00   0.0000000E+00   0.0000000E+00
   0.4370010E+01  -0.1730050E+01  -0.9670050E+02   0.0000000E+00   0.0000000E+00   0.0000000E+00   0.0000000E+00
   0.4700000E+01   0.0000000E+00  -0.9670050E+02   0.0000000E+00   0.0000000E+00   0.0000000E+00   0.0000000E+00
   0.4370010E+01  -0.1730050E+01  -0.1016100E+03   0.0000000E+00   0.0000000E+00   0.0000000E+00   0.0000000E+00
   0.4700000E+01   0.0000000E+00  -0.1016100E+03   0.0000000E+00   0.0000000E+00   0.0000000E+00   0.0000000E+00
   0.4370010E+01  -0.1730050E+01  -0.1065190E+03   0.0000000E+00   0.0000000E+00   0.0000000E+00   0.0000000E+00
   0.4700000E+01   0.0000000E+00  -0.1065190E+03   0.0000000E+00   0.0000000E+00   0.0000000E+00   0.0000000E+00
   0.4370010E+01  -0.1730050E+01  -0.1114280E+03   0.0000000E+00   0.0000000E+00   0.0000000E+00   0.0000000E+00
   0.4700000E+01   0.0000000E+00  -0.1114280E+03   0.0000000E+00   0.0000000E+00   0.0000000E+00   0.0000000E+00
   0.4370010E+01  -0.1730050E+01  -0.1163370E+03   0.0000000E+00   0.0000000E+00   0.0000000E+00   0.0000000E+00
   0.4700000E+01   0.0000000E+00  -0.1163370E+03   0.0000000E+00   0.0000000E+00   0.0000000E+00   0.0000000E+00
   0.4370010E+01  -0.1730050E+01  -0.1212460E+03   0.0000000E+00   0.0000000E+00   0.0000000E+00   0.0000000E+00
   0.4700000E+01   0.0000000E+00  -0.1212460E+03   0.0000000E+00   0.0000000E+00   0.0000000E+00   0.0000000E+00
   0.4370010E+01  -0.1730050E+01  -0.1261550E+03   0.0000000E+00   0.0000000E+00   0.0000000E+00   0.0000000E+00
   0.4700000E+01   0.0000000E+00  -0.1261550E+03   0.0000000E+00   0.0000000E+00   0.0000000E+00   0.0000000E+00
   0.3323400E+01  -0.3323400E+01  -0.2306410E+02   0.0000000E+00   0.0000000E+00   0.0000000E+00   0.0000000E+00
   0.3323400E+01  -0.3323400E+01  -0.2797320E+02   0.0000000E+00   0.0000000E+00   0.0000000E+00   0.0000000E+00
   0.3323400E+01  -0.3323400E+01  -0.3288230E+02   0.0000000E+00   0.0000000E+00   0.0000000E+00   0.0000000E+00
   0.3323400E+01  -0.3323400E+01  -0.3779140E+02   0.0000000E+00   0.0000000E+00   0.0000000E+00   0.0000000E+00
   0.3323400E+01  -0.3323400E+01  -0.4270050E+02   0.0000000E+00   0.0000000E+00   0.0000000E+00   0.0000000E+00
   0.3323400E+01  -0.3323400E+01  -0.4760950E+02   0.0000000E+00   0.0000000E+00   0.0000000E+00   0.0000000E+00
   0.3323400E+01  -0.3323400E+01  -0.5251860E+02   0.0000000E+00   0.0000000E+00   0.0000000E+00   0.0000000E+00
   0.3323400E+01  -0.3323400E+01  -0.5742770E+02   0.0000000E+00   0.0000000E+00   0.0000000E+00   0.0000000E+00
   0.3323400E+01  -0.3323400E+01  -0.6233680E+02   0.0000000E+00   0.0000000E+00   0.0000000E+00   0.0000000E+00
   0.3323400E+01  -0.3323400E+01  -0.6724590E+02   0.0000000E+00   0.0000000E+00   0.0000000E+00   0.0000000E+00
   0.3323400E+01  -0.3323400E+01  -0.7215500E+02   0.0000000E+00   0.0000000E+00   0.0000000E+00   0.0000000E+00
   0.3323400E+01  -0.3323400E+01  -0.7706410E+02   0.0000000E+00   0.0000000E+00   0.0000000E+00   0.0000000E+00
   0.3323400E+01  -0.3323400E+01  -0.8197320E+02   0.0000000E+00   0.0000000E+00   0.0000000E+00   0.0000000E+00
   0.3323400E+01  -0.3323400E+01  -0.8688230E+02   0.0000000E+00   0.0000000E+00   0.0000000E+00   0.0000000E+00
   0.3323400E+01  -0.3323400E+01  -0.9179140E+02   0.0000000E+00   0.0000000E+00   0.0000000E+00   0.0000000E+00
   0.3323400E+01  -0.3323400E+01  -0.9670050E+02   0.0000000E+00   0.0000000E+00   0.0000000E+00   0.0000000E+00
   0.3323400E+01  -0.3323400E+01  -0.1016100E+03   0.0000000E+00   0.0000000E+00   0.0000000E+00   0.0000000E+00
   0.3323400E+01  -0.3323400E+01  -0.1065190E+03   0.0000000E+00   0.0000000E+00   0.0000000E+00   0.0000000E+00
   0.3323400E+01  -0.3323400E+01  -0.1114280E+03   0.0000000E+00   0.0000000E+00   0.0000000E+00   0.0000000E+00
   0.3323400E+01  -0.3323400E+01  -0.1163370E+03   0.0000000E+00   0.0000000E+00   0.0000000E+00   0.0000000E+00
   0.3323400E+01  -0.3323400E+01  -0.1212460E+03   0.0000000E+00   0.0000000E+00   0.0000000E+00   0.0000000E+00
   0.3323400E+01  -0.3323400E+01  -0.1261550E+03   0.0000000E+00   0.0000000E+00   0.0000000E+00   0.0000000E+00
   0.1730050E+01  -0.4370010E+01  -0.2306410E+02   0.0000000E+00   0.0000000E+00   0.0000000E+00   0.0000000E+00
   0.1730050E+01  -0.4370010E+01  -0.1815500E+02   0.0000000E+00   0.0000000E+00   0.0000000E+00   0.0000000E+00
   0.1730050E+01  -0.4370010E+01  -0.2797320E+02   0.0000000E+00   0.0000000E+00   0.0000000E+00   0.0000000E+00
   0.1730050E+01  -0.4370010E+01  -0.3288230E+02   0.0000000E+00   0.0000000E+00   0.0000000E+00   0.0000000E+00
   0.1730050E+01  -0.4370010E+01  -0.3779140E+02   0.0000000E+00   0.0000000E+00   0.0000000E+00   0.0000000E+00
   0.1730050E+01  -0.4370010E+01  -0.4270050E+02   0.0000000E+00   0.0000000E+00   0.0000000E+00   0.0000000E+00
   0.1730050E+01  -0.4370010E+01  -0.4760950E+02   0.0000000E+00   0.0000000E+00   0.0000000E+00   0.0000000E+00
   0.1730050E+01  -0.4370010E+01  -0.5251860E+02   0.0000000E+00   0.0000000E+00   0.0000000E+00   0.0000000E+00
   0.1730050E+01  -0.4370010E+01  -0.5742770E+02   0.0000000E+00   0.0000000E+00   0.0000000E+00   0.0000000E+00
   0.1730050E+01  -0.4370010E+01  -0.6233680E+02   0.0000000E+00   0.0000000E+00   0.0000000E+00   0.0000000E+00
   0.1730050E+01  -0.4370010E+01  -0.6724590E+02   0.0000000E+00   0.0000000E+00   0.0000000E+00   0.0000000E+00
   0.1730050E+01  -0.4370010E+01  -0.7215500E+02   0.0000000E+00   0.0000000E+00   0.0000000E+00   0.0000000E+00
   0.1730050E+01  -0.4370010E+01  -0.7706410E+02   0.0000000E+00   0.0000000E+00   0.0000000E+00   0.0000000E+00
   0.1730050E+01  -0.4370010E+01  -0.8197320E+02   0.0000000E+00   0.0000000E+00   0.0000000E+00   0.0000000E+00
   0.1730050E+01  -0.4370010E+01  -0.8688230E+02   0.0000000E+00   0.0000000E+00   0.0000000E+00   0.0000000E+00
   0.1730050E+01  -0.4370010E+01  -0.9179140E+02   0.0000000E+00   0.0000000E+00   0.0000000E+00   0.0000000E+00
   0.1730050E+01  -0.4370010E+01  -0.9670050E+02   0.0000000E+00   0.0000000E+00   0.0000000E+00   0.0000000E+00
   0.1730050E+01  -0.4370010E+01  -0.1016100E+03   0.0000000E+00   0.0000000E+00   0.0000000E+00   0.0000000E+00
   0.1730050E+01  -0.4370010E+01  -0.1065190E+03   0.0000000E+00   0.0000000E+00   0.0000000E+00   0.0000000E+00
   0.1730050E+01  -0.4370010E+01  -0.1114280E+03   0.0000000E+00   0.0000000E+00   0.0000000E+00   0.0000000E+00
   0.1730050E+01  -0.4370010E+01  -0.1163370E+03   0.0000000E+00   0.0000000E+00   0.0000000E+00   0.0000000E+00
   0.1730050E+01  -0.4370010E+01  -0.1212460E+03   0.0000000E+00   0.0000000E+00   0.0000000E+00   0.0000000E+00
   0.1730050E+01  -0.4370010E+01  -0.1261550E+03   0.0000000E+00   0.0000000E+00   0.0000000E+00   0.0000000E+00
   0.2877920E-15  -0.4700000E+01  -0.2306410E+02   0.0000000E+00   0.0000000E+00   0.0000000E+00   0.0000000E+00
   0.2877920E-15  -0.4700000E+01  -0.2797320E+02   0.0000000E+00   0.0000000E+00   0.0000000E+00   0.0000000E+00
   0.2877920E-15  -0.4700000E+01  -0.3288230E+02   0.0000000E+00   0.0000000E+00   0.0000000E+00   0.0000000E+00
   0.2877920E-15  -0.4700000E+01  -0.3779140E+02   0.0000000E+00   0.0000000E+00   0.0000000E+00   0.0000000E+00
   0.2877920E-15  -0.4700000E+01  -0.4270050E+02   0.0000000E+00   0.0000000E+00   0.0000000E+00   0.0000000E+00
   0.2877920E-15  -0.4700000E+01  -0.4760950E+02   0.0000000E+00   0.0000000E+00   0.0000000E+00   0.0000000E+00
   0.2877920E-15  -0.4700000E+01  -0.5251860E+02   0.0000000E+00   0.0000000E+00   0.0000000E+00   0.0000000E+00
   0.2877920E-15  -0.4700000E+01  -0.5742770E+02   0.0000000E+00   0.0000000E+00   0.0000000E+00   0.0000000E+00
   0.2877920E-15  -0.4700000E+01  -0.6233680E+02   0.0000000E+00   0.0000000E+00   0.0000000E+00   0.0000000E+00
   0.2877920E-15  -0.4700000E+01  -0.6724590E+02   0.0000000E+00   0.0000000E+00   0.0000000E+00   0.0000000E+00
   0.2877920E-15  -0.4700000E+01  -0.7215500E+02   0.0000000E+00   0.0000000E+00   0.0000000E+00   0.0000000E+00
   0.2877920E-15  -0.4700000E+01  -0.7706410E+02   0.0000000E+00   0.0000000E+00   0.0000000E+00   0.0000000E+00
   0.2877920E-15  -0.4700000E+01  -0.8197320E+02   0.0000000E+00   0.0000000E+00   0.0000000E+00   0.0000000E+00
   0.2877920E-15  -0.4700000E+01  -0.8688230E+02   0.0000000E+00   0.0000000E+00   0.0000000E+00   0.0000000E+00
   0.2877920E-15  -0.4700000E+01  -0.9179140E+02   0.0000000E+00   0.0000000E+00   0.0000000E+00   0.0000000E+00
   0.2877920E-15  -0.4700000E+01  -0.9670050E+02   0.0000000E+00   0.0000000E+00   0.0000000E+00   0.0000000E+00
   0.2877920E-15  -0.4700000E+01  -0.1016100E+03   0.0000000E+00   0.0000000E+00   0.0000000E+00   0.0000000E+00
   0.2877920E-15  -0.4700000E+01  -0.1065190E+03   0.0000000E+00   0.0000000E+00   0.0000000E+00   0.0000000E+00
   0.2877920E-15  -0.4700000E+01  -0.1114280E+03   0.0000000E+00   0.0000000E+00   0.0000000E+00   0.0000000E+00
   0.2877920E-15  -0.4700000E+01  -0.1163370E+03   0.0000000E+00   0.0000000E+00   0.0000000E+00   0.0000000E+00
   0.2877920E-15  -0.4700000E+01  -0.1212460E+03   0.0000000E+00   0.0000000E+00   0.0000000E+00   0.0000000E+00
   0.2877920E-15  -0.4700000E+01  -0.1261550E+03   0.0000000E+00   0.0000000E+00   0.0000000E+00   0.0000000E+00
  -0.1730050E+01  -0.4370010E+01  -0.2306410E+02   0.0000000E+00   0.0000000E+00   0.0000000E+00   0.0000000E+00
  -0.1730050E+01  -0.4370010E+01  -0.1815500E+02   0.0000000E+00   0.0000000E+00   0.0000000E+00   0.0000000E+00
  -0.1730050E+01  -0.4370010E+01  -0.2797320E+02   0.0000000E+00   0.0000000E+00   0.0000000E+00   0.0000000E+00
  -0.1730050E+01  -0.4370010E+01  -0.3288230E+02   0.0000000E+00   0.0000000E+00   0.0000000E+00   0.0000000E+00
  -0.1730050E+01  -0.4370010E+01  -0.3779140E+02   0.0000000E+00   0.0000000E+00   0.0000000E+00   0.0000000E+00
  -0.1730050E+01  -0.4370010E+01  -0.4270050E+02   0.0000000E+00   0.0000000E+00   0.0000000E+00   0.0000000E+00
  -0.1730050E+01  -0.4370010E+01  -0.4760950E+02   0.0000000E+00   0.0000000E+00   0.0000000E+00   0.0000000E+00
  -0.1730050E+01  -0.4370010E+01  -0.5251860E+02   0.0000000E+00   0.0000000E+00   0.0000000E+00   0.0000000E+00
  -0.1730050E+01  -0.4370010E+01  -0.5742770E+02   0.0000000E+00   0.0000000E+00   0.0000000E+00   0.0000000E+00
  -0.1730050E+01  -0.4370010E+01  -0.6233680E+02   0.0000000E+00   0.0000000E+00   0.0000000E+00   0.0000000E+00
  -0.1730050E+01  -0.4370010E+01  -0.6724590E+02   0.0000000E+00   0.0000000E+00   0.0000000E+00   0.0000000E+00
  -0.1730050E+01  -0.4370010E+01  -0.7215500E+02   0.0000000E+00   0.0000000E+00   0.0000000E+00   0.0000000E+00
  -0.1730050E+01  -0.4370010E+01  -0.7706410E+02   0.0000000E+00   0.0000000E+00   0.0000000E+00   0.0000000E+00
  -0.1730050E+01  -0.4370010E+01  -0.8197320E+02   0.0000000E+00   0.0000000E+00   0.0000000E+00   0.0000000E+00
  -0.1730050E+01  -0.4370010E+01  -0.8688230E+02   0.0000000E+00   0.0000000E+00   0.0000000E+00   0.0000000E+00
  -0.1730050E+01  -0.4370010E+01  -0.9179140E+02   0.0000000E+00   0.0000000E+00   0.0000000E+00   0.0000000E+00
  -0.1730050E+01  -0.4370010E+01  -0.9670050E+02   0.0000000E+00   0.0000000E+00   0.0000000E+00   0.0000000E+00
  -0.1730050E+01  -0.4370010E+01  -0.1016100E+03   0.0000000E+00   0.0000000E+00   0.0000000E+00   0.0000000E+00
  -0.1730050E+01  -0.4370010E+01  -0.1065190E+03   0.0000000E+00   0.0000000E+00   0.0000000E+00   0.0000000E+00
  -0.1730050E+01  -0.4370010E+01  -0.1114280E+03   0.0000000E+00   0.0000000E+00   0.0000000E+00   0.0000000E+00
  -0.1730050E+01  -0.4370010E+01  -0.1163370E+03   0.0000000E+00   0.0000000E+00   0.0000000E+00   0.0000000E+00
  -0.1730050E+01  -0.4370010E+01  -0.1212460E+03   0.0000000E+00   0.0000000E+00   0.0000000E+00   0.0000000E+00
  -0.1730050E+01  -0.4370010E+01  -0.1261550E+03   0.0000000E+00   0.0000000E+00   0.0000000E+00   0.0000000E+00
  -0.3323400E+01  -0.3323400E+01  -0.2306410E+02   0.0000000E+00   0.0000000E+00   0.0000000E+00   0.0000000E+00
  -0.3323400E+01  -0.3323400E+01  -0.2797320E+02   0.0000000E+00   0.0000000E+00   0.0000000E+00   0.0000000E+00
  -0.3323400E+01  -0.3323400E+01  -0.3288230E+02   0.0000000E+00   0.0000000E+00   0.0000000E+00   0.0000000E+00
  -0.3323400E+01  -0.3323400E+01  -0.3779140E+02   0.0000000E+00   0.0000000E+00   0.0000000E+00   0.0000000E+00
  -0.3323400E+01  -0.3323400E+01  -0.4270050E+02   0.0000000E+00   0.0000000E+00   0.0000000E+00   0.0000000E+00
  -0.3323400E+01  -0.3323400E+01  -0.4760950E+02   0.0000000E+00   0.0000000E+00   0.0000000E+00   0.0000000E+00
  -0.3323400E+01  -0.3323400E+01  -0.5251860E+02   0.0000000E+00   0.0000000E+00   0.0000000E+00   0.0000000E+00
  -0.3323400E+01  -0.3323400E+01  -0.5742770E+02   0.0000000E+00   0.0000000E+00   0.0000000E+00   0.0000000E+00
  -0.3323400E+01  -0.3323400E+01  -0.6233680E+02   0.0000000E+00   0.0000000E+00   0.0000000E+00   0.0000000E+00
  -0.3323400E+01  -0.3323400E+01  -0.6724590E+02   0.0000000E+00   0.0000000E+00   0.0000000E+00   0.0000000E+00
  -0.3323400E+01  -0.3323400E+01  -0.7215500E+02   0.0000000E+00   0.0000000E+00   0.0000000E+00   0.0000000E+00
  -0.3323400E+01  -0.3323400E+01  -0.7706410E+02   0.0000000E+00   0.0000000E+00   0.0000000E+00   0.0000000E+00
  -0.3323400E+01  -0.3323400E+01  -0.8197320E+02   0.0000000E+00   0.0000000E+00   0.0000000E+00   0.0000000E+00
  -0.3323400E+01  -0.3323400E+01  -0.8688230E+02   0.0000000E+00   0.0000000E+00   0.0000000E+00   0.0000000E+00
  -0.3323400E+01  -0.3323400E+01  -0.9179140E+02   0.0000000E+00   0.0000000E+00   0.0000000E+00   0.0000000E+00
  -0.3323400E+01  -0.3323400E+01  -0.9670050E+02   0.0000000E+00   0.0000000E+00   0.0000000E+00   0.0000000E+00
  -0.3323400E+01  -0.3323400E+01  -0.1016100E+03   0.0000000E+00   0.0000000E+00   0.0000000E+00   0.0000000E+00
  -0.3323400E+01  -0.3323400E+01  -0.1065190E+03   0.0000000E+00   0.0000000E+00   0.0000000E+00   0.0000000E+00
  -0.3323400E+01  -0.3323400E+01  -0.1114280E+03   0.0000000E+00   0.0000000E+00   0.0000000E+00   0.0000000E+00
  -0.3323400E+01  -0.3323400E+01  -0.1163370E+03   0.0000000E+00   0.0000000E+00   0.0000000E+00   0.0000000E+00
  -0.3323400E+01  -0.3323400E+01  -0.1212460E+03   0.0000000E+00   0.0000000E+00   0.0000000E+00   0.0000000E+00
  -0.3323400E+01  -0.3323400E+01  -0.1261550E+03   0.0000000E+00   0.0000000E+00   0.0000000E+00   0.0000000E+00
  -0.4370010E+01  -0.1730050E+01  -0.2306410E+02   0.0000000E+00   0.0000000E+00   0.0000000E+00   0.0000000E+00
  -0.4370010E+01  -0.1730050E+01  -0.1815500E+02   0.0000000E+00   0.0000000E+00   0.0000000E+00   0.0000000E+00
  -0.4370010E+01  -0.1730050E+01  -0.2797320E+02   0.0000000E+00   0.0000000E+00   0.0000000E+00   0.0000000E+00
  -0.4370010E+01  -0.1730050E+01  -0.3288230E+02   0.0000000E+00   0.0000000E+00   0.0000000E+00   0.0000000E+00
  -0.4370010E+01  -0.1730050E+01  -0.3779140E+02   0.0000000E+00   0.0000000E+00   0.0000000E+00   0.0000000E+00
  -0.4370010E+01  -0.1730050E+01  -0.4270050E+02   0.0000000E+00   0.0000000E+00   0.0000000E+00   0.0000000E+00
  -0.4370010E+01  -0.1730050E+01  -0.4760950E+02   0.0000000E+00   0.0000000E+00   0.0000000E+00   0.0000000E+00
  -0.4370010E+01  -0.1730050E+01  -0.5251860E+02   0.0000000E+00   0.0000000E+00   0.0000000E+00   0.0000000E+00
  -0.4370010E+01  -0.1730050E+01  -0.5742770E+02   0.0000000E+00   0.0000000E+00   0.0000000E+00   0.0000000E+00
  -0.4370010E+01  -0.1730050E+01  -0.6233680E+02   0.0000000E+00   0.0000000E+00   0.0000000E+00   0.0000000E+00
  -0.4370010E+01  -0.1730050E+01  -0.6724590E+02   0.0000000E+00   0.0000000E+00   0.0000000E+00   0.0000000E+00
  -0.4370010E+01  -0.1730050E+01  -0.7215500E+02   0.0000000E+00   0.0000000E+00   0.0000000E+00   0.0000000E+00
  -0.4370010E+01  -0.1730050E+01  -0.7706410E+02   0.0000000E+00   0.0000000E+00   0.0000000E+00   0.0000000E+00
  -0.4370010E+01  -0.1730050E+01  -0.8197320E+02   0.0000000E+00   0.0000000E+00   0.0000000E+00   0.0000000E+00
  -0.4370010E+01  -0.1730050E+01  -0.8688230E+02   0.0000000E+00   0.0000000E+00   0.0000000E+00   0.0000000E+00
  -0.4370010E+01  -0.1730050E+01  -0.9179140E+02   0.0000000E+00   0.0000000E+00   0.0000000E+00   0.0000000E+00
  -0.4370010E+01  -0.1730050E+01  -0.9670050E+02   0.0000000E+00   0.0000000E+00   0.0000000E+00   0.0000000E+00
  -0.4370010E+01  -0.1730050E+01  -0.1016100E+03   0.0000000E+00   0.0000000E+00   0.0000000E+00   0.0000000E+00
  -0.4370010E+01  -0.1730050E+01  -0.1065190E+03   0.0000000E+00   0.0000000E+00   0.0000000E+00   0.0000000E+00